! AWR Design Environment (17415) Wed Nov  6 14:17:59 2024
! Document = 'SMA'
! nPorts: 2, nXvals: 201

# MHz S DB R 50
!Freq DBS11 AngS11 DBS21 AngS21 DBS12 AngS12 DBS22 AngS22 
10 -93.292095711543 89.8271170157353 -2.03504821864073e-09 -0.172882984579882 -2.03504870080446e-09 -0.172882984579062 -93.2920957172846 89.8271170153147 
14.95 -89.7992881111705 89.7415399381385 -4.54836525334885e-09 -0.258460061890081 -4.54836718200378e-09 -0.25846006189013 -89.7992881109389 89.7415399379414 
19.9 -87.3150731803655 89.6559628609204 -8.05892370072543e-09 -0.344037139146475 -8.05892225423423e-09 -0.344037139147074 -87.3150731782584 89.6559628608296 
24.85 -85.3856360485019 89.5703857836294 -1.256668499009e-08 -0.429614216324153 -1.25666840257625e-08 -0.429614216324821 -85.3856360466193 89.5703857837319 
29.8 -83.8078742806713 89.4848087067305 -1.80716115157764e-08 -0.515191293400458 -1.80716124801039e-08 -0.515191293400551 -83.8078742804542 89.4848087066944 
34.75 -82.4731455037372 89.399231629669 -2.45736555473666e-08 -0.60076837036115 -2.45736555473666e-08 -0.600768370361074 -82.4731455038898 89.3992316296487 
39.7 -81.3164801258712 89.3136545527949 -3.20727573010358e-08 -0.686345447183358 -3.20727573010358e-08 -0.686345447183353 -81.3164801258796 89.3136545528303 
44.65 -80.2959160331649 89.2280774761171 -4.0568852172008e-08 -0.771922523846631 -4.0568850243353e-08 -0.771922523846771 -80.2959160329448 89.2280774761318 
49.6 -79.3827732648449 89.1425003996467 -5.00618620556088e-08 -0.857499600332988 -5.00618596447901e-08 -0.857499600333187 -79.3827732645637 89.1425003996715 
54.55 -78.5565796547772 89.0569233233938 -6.05517011332298e-08 -0.943076676623922 -6.05517016153935e-08 -0.943076676623942 -78.5565796547516 89.0569233233496 
59.5 -77.8022098558294 88.9713462473075 -7.20382792474745e-08 -1.0286537526972 -7.20382792474745e-08 -1.02865375269707 -77.8022098559794 88.9713462472882 
64.45 -77.108171614345 88.8857691714546 -8.45214908123921e-08 -1.11423082853464 -8.45214912945558e-08 -1.11423082853447 -77.1081716145242 88.8857691714079 
69.4 -76.4655279766776 88.8001920958992 -9.80012283140616e-08 -1.19980790411587 -9.80012292783891e-08 -1.19980790411587 -76.4655279766722 88.800192095876 
74.35 -75.8671917273279 88.7146150205348 -1.12477366881352e-07 -1.28538497942266 -1.12477366881352e-07 -1.28538497942275 -75.8671917272383 88.7146150205886 
79.3 -75.3074476955581 88.6290379455365 -1.27949781643817e-07 -1.37096205443304 -1.27949781161653e-07 -1.37096205443289 -75.3074476956952 88.6290379455581 
84.25 -74.781619970154 88.543460870913 -1.44418330855961e-07 -1.45653912912996 -1.44418331338125e-07 -1.4565391291298 -74.7816199702935 88.5434608708424 
89.2 -74.2858342523975 88.4578837964951 -1.61882869397829e-07 -1.54211620349153 -1.61882869879993e-07 -1.54211620349159 -74.2858342523487 88.4578837965267 
94.15 -73.8168444926055 88.3723067225164 -1.8034324250687e-07 -1.62769327749981 -1.80343241060379e-07 -1.62769327749978 -73.8168444926331 88.3723067224922 
99.1 -73.3719039902518 88.2867296488649 -1.99799281920634e-07 -1.71327035113443 -1.99799281920634e-07 -1.71327035113425 -73.3719039903807 88.2867296488542 
104.05 -72.9486679501117 88.2011525756574 -2.20250816966531e-07 -1.79884742437562 -2.20250816966531e-07 -1.79884742437558 -72.9486679501403 88.201152575622 
109 -72.5451187046025 88.1155755027522 -2.41697663954232e-07 -1.88442449720469 -2.41697663472068e-07 -1.88442449720463 -72.5451187046385 88.1155755027873 
113.95 -72.1595075559877 88.0299984304339 -2.64139633408124e-07 -1.97000156960045 -2.64139632925961e-07 -1.97000156960056 -72.1595075559196 88.0299984304073 
118.9 -71.7903089984756 87.9444213584743 -2.87576520424035e-07 -2.05557864154523 -2.87576521388362e-07 -2.05557864154526 -71.7903089984582 87.9444213584664 
123.85 -71.4361842777866 87.8588442869841 -3.1200812154496e-07 -2.14115571301764 -3.1200812154496e-07 -2.1411557130176 -71.4361842778115 87.8588442869802 
128.8 -71.0959521025585 87.7732672160461 -3.37434216438845e-07 -2.22673278399861 -3.37434216921009e-07 -2.22673278399872 -71.0959521025013 87.7732672160026 
133.75 -70.7685648776878 87.6876901455418 -3.63854576577528e-07 -2.3123098544692 -3.63854576095364e-07 -2.31230985446926 -70.7685648776582 87.6876901455301 
138.7 -70.4530892601446 87.6021130755789 -3.91268967165395e-07 -2.39788692440895 -3.91268967647559e-07 -2.39788692440903 -70.4530892601032 87.6021130755922 
143.65 -70.148690127333 87.5165360062083 -4.19677147139381e-07 -2.48346399379946 -4.19677146175053e-07 -2.48346399379949 -70.1486901273185 87.5165360062058 
148.6 -69.8546172595621 87.430958937392 -4.49078855186216e-07 -2.56904106262009 -4.49078856632707e-07 -2.56904106262003 -69.8546172595878 87.4309589373625 
153.55 -69.5701942087196 87.3453818691484 -4.79473835779273e-07 -2.65461813085118 -4.79473837707928e-07 -2.65461813085115 -69.5701942087333 87.3453818691424 
158.5 -69.2948089319964 87.2598048015524 -5.10861817481193e-07 -2.74019519847387 -5.10861817963357e-07 -2.74019519847382 -69.2948089320216 87.2598048015307 
163.45 -69.0279058660809 87.1742277345336 -5.43242514390376e-07 -2.82577226546826 -5.43242516319031e-07 -2.82577226546818 -69.0279058661146 87.1742277345338 
168.4 -68.7689791853264 87.0886506681632 -5.7661564494537e-07 -2.91134933181484 -5.76615643498878e-07 -2.91134933181492 -68.7689791852922 87.0886506681884 
173.35 -68.5175670356977 87.0030736024815 -6.10980905405858e-07 -2.99692639749388 -6.10980906370186e-07 -2.99692639749379 -68.5175670357324 87.0030736025131 
178.3 -68.2732465823409 86.9174965375289 -6.46337993478688e-07 -3.08250346248625 -6.46337993960851e-07 -3.08250346248621 -68.2732465823574 86.9174965375158 
183.25 -68.0356297331036 86.8319194732276 -6.82686589995641e-07 -3.16808052677181 -6.82686590959968e-07 -3.16808052677179 -68.0356297331098 86.8319194732276 
188.2 -67.8043594347369 86.7463424096713 -7.20026372896185e-07 -3.25365759033162 -7.20026373378349e-07 -3.25365759033163 -67.8043594347317 86.7463424096682 
193.15 -67.5791064479323 86.6607653468651 -7.58357008066362e-07 -3.33923465314592 -7.58357008548526e-07 -3.33923465314595 -67.5791064479212 86.6607653468539 
198.1 -67.3595665318661 86.5751882847844 -7.9767815271393e-07 -3.42481171519539 -7.97678152231766e-07 -3.42481171519547 -67.3595665318374 86.5751882848188 
203.05 -67.1454579752083 86.489611223544 -8.3798945874351e-07 -3.51038877645967 -8.37989457779182e-07 -3.51038877645976 -67.1454579751743 86.4896112235471 
208 -66.9365194260783 86.4040341630872 -8.79290565041965e-07 -3.59596583692005 -8.79290564559801e-07 -3.59596583692009 -66.9365194260656 86.4040341630827 
212.95 -66.7325079755858 86.318457103455 -9.21581099889217e-07 -3.68154289655726 -9.21581101335709e-07 -3.68154289655722 -66.7325079755982 86.3184571034402 
217.9 -66.5331974621936 86.232880044628 -9.64860690601521e-07 -3.7671199553511 -9.64860689637194e-07 -3.76711995535109 -66.5331974621958 86.2328800446434 
222.85 -66.3383769671338 86.147302986714 -1.00912895003088e-06 -3.85269701328217 -1.00912894858439e-06 -3.85269701328214 -66.338376967145 86.1473029867137 
227.8 -66.1478494747743 86.0617259296765 -1.05438547994018e-06 -3.93827407033159 -1.05438547994018e-06 -3.93827407033158 -66.1478494747775 86.0617259296584 
232.75 -65.9614306762888 85.9761488735468 -1.10062988016433e-06 -4.02385112647929 -1.10062988112866e-06 -4.02385112647932 -65.9614306762798 85.9761488735289 
237.7 -65.7789479004991 85.8905718182834 -1.14786173559179e-06 -4.10942818170607 -1.14786173462747e-06 -4.10942818170607 -65.7789479005002 85.8905718182964 
242.65 -65.6002391539684 85.8049947639995 -1.19608062532573e-06 -4.19500523599228 -1.1960806258079e-06 -4.19500523599225 -65.6002391539779 85.8049947640022 
247.6 -65.425152258589 85.7194177106777 -1.24528612027318e-06 -4.28058228931879 -1.24528611979101e-06 -4.28058228931883 -65.4251522585766 85.7194177106832 
252.55 -65.2535440739903 85.6338406583404 -1.29547778025205e-06 -4.36615934166616 -1.29547778073421e-06 -4.36615934166619 -65.2535440739827 85.633840658333 
257.5 -65.085279795882 85.5482636069792 -1.34665515929494e-06 -4.45173639301457 -1.34665515833061e-06 -4.45173639301459 -65.0852797958749 85.5482636069807 
262.45 -64.920232321238 85.4626865566407 -1.39881779600586e-06 -4.53731344334486 -1.39881779600586e-06 -4.53731344334487 -64.9202323212348 85.4626865566458 
267.4 -64.7582816723955 85.3771095073541 -1.45196523140028e-06 -4.62289049263749 -1.45196523043596e-06 -4.6228904926375 -64.7582816723954 85.3771095073605 
272.35 -64.5993144743837 85.2915324591181 -1.50609698576128e-06 -4.70846754087321 -1.50609698431479e-06 -4.70846754087326 -64.599314474371 85.2915324591331 
277.3 -64.4432234790135 85.205955411957 -1.56121257696176e-06 -4.79404458803271 -1.56121257744392e-06 -4.7940445880327 -64.4432234790168 85.2059554119685 
282.25 -64.2899071312993 85.1203783659208 -1.61731151612496e-06 -4.87962163409643 -1.61731151757145e-06 -4.8796216340964 -64.2899071313053 85.1203783658996 
287.2 -64.1392691735284 85.0348013209714 -1.67439330183852e-06 -4.96519867904506 -1.67439330087419e-06 -4.96519867904514 -64.1392691735094 85.0348013209556 
292.15 -63.9912182829657 84.9492242771388 -1.7324574220831e-06 -5.05077572285915 -1.73245741967228e-06 -5.05077572285916 -63.9912182829624 84.949224277144 
297.1 -63.8456677405207 84.8636472344798 -1.7915033595362e-06 -5.13635276551967 -1.79150335857188e-06 -5.13635276551972 -63.8456677405087 84.8636472344823 
302.05 -63.7025351258839 84.7780701929896 -1.85153058723269e-06 -5.22192980700666 -1.85153058916135e-06 -5.22192980700666 -63.7025351258836 84.7780701929937 
307 -63.561742038665 84.6924931527049 -1.91253857386858e-06 -5.30750684730138 -1.91253857386858e-06 -5.30750684730138 -63.5617420386653 84.6924931526884 
311.95 -63.4232138405784 84.6069161136156 -1.97452676740749e-06 -5.39308388638415 -1.97452676885398e-06 -5.39308388638417 -63.4232138405744 84.6069161136151 
316.9 -63.2868794188792 84.5213390757661 -2.03749462208177e-06 -5.47866092423591 -2.03749462208177e-06 -5.4786609242359 -63.2868794188808 84.5213390757565 
321.85 -63.1526709675881 84.4357620391547 -2.10144157090923e-06 -5.56423796083715 -2.10144157235572e-06 -5.56423796083715 -63.1526709675884 84.4357620391641 
326.8 -63.0205237857479 84.3501850038341 -2.16636704883692e-06 -5.64981499616891 -2.1663670464261e-06 -5.64981499616896 -63.0205237857376 84.3501850038352 
331.75 -62.8903760904016 84.2646079697814 -2.23227046718653e-06 -5.73539203021143 -2.23227046815085e-06 -5.73539203021142 -62.8903760904044 84.2646079697832 
336.7 -62.7621688441606 84.1790309370433 -2.2991512469236e-06 -5.82096906294589 -2.2991512469236e-06 -5.82096906294585 -62.7621688441703 84.1790309370449 
341.65 -62.6358455944849 84.0934539056335 -2.36700878731697e-06 -5.9065460943527 -2.36700878635265e-06 -5.90654609435271 -62.6358455944841 84.0934539056481 
346.6 -62.5113523251731 84.0078768755916 -2.43584248281443e-06 -5.99212312441268 -2.43584248233227e-06 -5.99212312441273 -62.5113523251639 84.0078768755928 
351.55 -62.3886373181767 83.9222998468824 -2.50565171918544e-06 -6.07770015310696 -2.50565171773895e-06 -6.07770015310699 -62.3886373181703 83.9222998468915 
356.5 -62.267651024849 83.8367228195811 -2.57643587544979e-06 -6.16327718041592 -2.57643587352113e-06 -6.1632771804159 -62.2676510248534 83.836722819585 
361.45 -62.1483459465572 83.7511457936886 -2.64819431568079e-06 -6.24885420632062 -2.64819431712728e-06 -6.24885420632057 -62.1483459465659 83.7511457936746 
366.4 -62.030676522891 83.6655687692018 -2.72092640395238e-06 -6.3344312308016 -2.72092640443454e-06 -6.33443123080158 -62.0306765228945 83.6655687691963 
371.35 -61.9145990277588 83.579991746157 -2.79463148987417e-06 -6.42000825383969 -2.79463148890985e-06 -6.42000825383968 -61.9145990277601 83.5799917461589 
376.3 -61.8000714722832 83.4944147245875 -2.86930891437746e-06 -6.50558527541619 -2.86930891437746e-06 -6.50558527541614 -61.8000714722921 83.4944147245879 
381.25 -61.6870535137062 83.4088377044791 -2.94495801164383e-06 -6.59116229551124 -2.94495801164383e-06 -6.59116229551123 -61.6870535137085 83.4088377044906 
386.2 -61.5755063708386 83.3232606858862 -3.02157810814085e-06 -6.67673931410639 -3.02157810717653e-06 -6.67673931410637 -61.5755063708418 83.3232606858983 
391.15 -61.4653927441348 83.237683668816 -3.09916851876477e-06 -6.76231633118207 -3.09916851731828e-06 -6.76231633118211 -61.4653927441281 83.2376836688207 
396.1 -61.3566767413414 83.152106653272 -3.17772855214428e-06 -6.84789334671911 -3.17772855021562e-06 -6.84789334671911 -61.356676741341 83.1521066532747 
401.05 -61.2493238077028 83.0665296393116 -3.25725750581892e-06 -6.93347036069885 -3.25725750581892e-06 -6.93347036069885 -61.249323807702 83.0665296392968 
406 -61.1433006600134 82.9809526269017 -3.33775467009637e-06 -7.01904737310181 -3.33775466864987e-06 -7.01904737310183 -61.1433006600102 82.9809526268952 
410.95 -61.0385752252643 82.8953756160847 -3.41921932612375e-06 -7.1046243839092 -3.41921932660592e-06 -7.10462438390919 -61.0385752252668 82.89537561609 
415.9 -60.935116582477 82.8097986068909 -3.50165075070935e-06 -7.19020139310151 -3.50165075022718e-06 -7.19020139310154 -60.935116582473 82.8097986068954 
420.85 -60.8328949083951 82.7242215993404 -3.58504820571491e-06 -7.27577840066024 -3.58504820571491e-06 -7.27577840066023 -60.8328949083957 82.7242215993405 
425.8 -60.7318814259381 82.6386445934345 -3.6694109462525e-06 -7.36135540656615 -3.66941094673467e-06 -7.36135540656618 -60.7318814259338 82.6386445934322 
430.75 -60.6320483558695 82.5530675892057 -3.75473822116662e-06 -7.44693241080003 -3.75473822164879e-06 -7.44693241080005 -60.6320483558667 82.5530675892066 
435.7 -60.5333688713656 82.4674905866619 -3.84102926628394e-06 -7.53250941334335 -3.8410292667661e-06 -7.53250941334339 -60.5333688713594 82.4674905866593 
440.65 -60.4358170546477 82.3819135858127 -3.92828331405653e-06 -7.61808641417654 -3.92828331261004e-06 -7.61808641417651 -60.4358170546513 82.38191358582 
445.6 -60.3393678567566 82.2963365867145 -4.0164995858473e-06 -7.7036634132811 -4.01649958536513e-06 -7.70366341328108 -60.339367856759 82.2963365867164 
450.55 -60.2439970588031 82.2107595893686 -4.10567729192993e-06 -7.78924041063778 -4.10567729337642e-06 -7.78924041063776 -60.2439970588063 82.2107595893575 
455.5 -60.1496812359364 82.1251825937725 -4.19581564016788e-06 -7.87481740622785 -4.19581564016788e-06 -7.87481740622786 -60.1496812359339 82.1251825937733 
460.45 -60.0563977228333 82.0396055999689 -4.28691382444241e-06 -7.96039440003217 -4.28691382347808e-06 -7.96039440003216 -60.0563977228349 82.0396055999669 
465.4 -59.9641245814019 81.9540286079678 -4.37897103043853e-06 -8.04597139203218 -4.3789710309207e-06 -8.04597139203216 -59.9641245814035 81.9540286079658 
470.35 -59.8728405697704 81.8684516177956 -4.47198643950239e-06 -8.13154838220856 -4.47198643998456e-06 -8.13154838220854 -59.8728405697738 81.8684516177878 
475.3 -59.7825251133757 81.7828746294606 -4.56595921948007e-06 -8.21712537054276 -4.5659592189979e-06 -8.21712537054277 -59.7825251133737 81.7828746294614 
480.25 -59.6931582771098 81.6972976429874 -4.66088853339657e-06 -8.30270235701579 -4.66088853291441e-06 -8.30270235701581 -59.6931582771062 81.6972976429872 
485.2 -59.6047207392024 81.6117206583888 -4.75677353174119e-06 -8.38827934160884 -4.75677353077686e-06 -8.38827934160884 -59.6047207392025 81.61172065839 
490.15 -59.5171937663017 81.5261436756947 -4.85361336114647e-06 -8.47385632430319 -4.85361335969998e-06 -8.47385632430316 -59.5171937663049 81.5261436756992 
495.1 -59.4305591897567 81.4405666949227 -4.95140715378058e-06 -8.55943330507975 -4.95140715570924e-06 -8.55943330507976 -59.4305591897563 81.4405666949212 
500.05 -59.3447993832416 81.3549897160787 -5.05015404422304e-06 -8.64501028391992 -5.05015404325871e-06 -8.64501028391991 -59.3447993832421 81.354989716082 
505 -59.2598972413579 81.2694127391925 -5.14985314439223e-06 -8.73058726080506 -5.14985314391006e-06 -8.73058726080508 -59.2598972413556 81.2694127391991 
509.95 -59.1758361592229 81.1838357642815 -5.25050356765354e-06 -8.81616423571622 -5.2505035681357e-06 -8.8161642357162 -59.1758361592265 81.1838357642821 
514.9 -59.0926000132524 81.0982587913654 -5.35210441483664e-06 -8.90174120863457 -5.35210441483664e-06 -8.9017412086346 -59.092600013248 81.0982587913626 
519.85 -59.0101731427025 81.0126818204522 -5.45465478098577e-06 -8.98731817954179 -5.45465478002144e-06 -8.98731817954179 -59.0101731427028 81.0126818204579 
524.8 -58.9285403320445 80.92710485158 -5.55815374957378e-06 -9.07289514841873 -5.55815374909161e-06 -9.07289514841875 -58.9285403320425 80.9271048515868 
529.75 -58.8476867943705 80.8415278847393 -5.66260039491289e-06 -9.15847211524698 -5.66260039443073e-06 -9.15847211524696 -58.847686794373 80.8415278847494 
534.7 -58.7675981553651 80.7559509199868 -5.76799379035157e-06 -9.24404908000774 -5.7679937898694e-06 -9.24404908000776 -58.7675981553623 80.7559509199952 
539.65 -58.6882604381378 80.6703739573173 -5.87433298947004e-06 -9.32962604268258 -5.8743329899522e-06 -9.3296260426826 -58.6882604381348 80.6703739573122 
544.6 -58.6096600486336 80.584796996748 -5.98161704825989e-06 -9.41520300325254 -5.98161704970639e-06 -9.41520300325256 -58.6096600486311 80.5847969967417 
549.55 -58.5317837619078 80.4992200383063 -6.08984500728398e-06 -9.50077996169926 -6.08984500824831e-06 -9.5007799616993 -58.5317837619026 80.499220038297 
554.5 -58.4546187087594 80.413643081992 -6.19901590035536e-06 -9.58635691800407 -6.19901590083753e-06 -9.58635691800408 -58.4546187087579 80.4136430819917 
559.45 -58.3781523631598 80.3280661278571 -6.30912875501949e-06 -9.67193387214838 -6.30912875646598e-06 -9.6719338721484 -58.3781523631583 80.3280661278577 
564.4 -58.302372530123 80.2424891758837 -6.42018258532172e-06 -9.75751082411362 -6.42018258483955e-06 -9.75751082411361 -58.302372530125 80.2424891758858 
569.35 -58.2272673341877 80.1569122261275 -6.53217640386142e-06 -9.84308777388136 -6.53217640434358e-06 -9.84308777388136 -58.2272673341869 80.156912226121 
574.3 -58.1528252082893 80.0713352785666 -6.64510920877354e-06 -9.92866472143303 -6.64510920829138e-06 -9.92866472143305 -58.1528252082868 80.0713352785639 
579.25 -58.0790348832206 79.9857583332527 -6.7589799933719e-06 -10.0142416667502 -6.75897999433623e-06 -10.0142416667502 -58.0790348832202 79.9857583332509 
584.2 -58.0058853774643 79.9001813901887 -6.87378774132751e-06 -10.0998186098142 -6.87378774132751e-06 -10.0998186098142 -58.0058853774647 79.9001813901866 
589.15 -57.933365987538 79.8146044493937 -6.98953142715077e-06 -10.1853955506069 -6.98953142859727e-06 -10.1853955506068 -57.9333659875398 79.8146044493871 
594.1 -57.86146627859 79.7290275108876 -7.10621002294176e-06 -10.2709724891094 -7.10621002149526e-06 -10.2709724891094 -57.8614662785912 79.7290275108951 
599.05 -57.7901760756115 79.6434505746925 -7.22382247958578e-06 -10.3565494253038 -7.22382247910362e-06 -10.3565494253038 -57.79017607561 79.643450574699 
604 -57.7194854547586 79.5578736408243 -7.34236775375464e-06 -10.4421263591714 -7.34236775230815e-06 -10.4421263591714 -57.719485454758 79.5578736408302 
608.95 -57.6493847352336 79.4722967093002 -7.4618447818697e-06 -10.5277032906939 -7.46184478138753e-06 -10.5277032906939 -57.6493847352349 79.4722967093016 
613.9 -57.5798644713906 79.3867197801461 -7.58225250469227e-06 -10.6132802198529 -7.5822525056566e-06 -10.6132802198529 -57.5798644713907 79.3867197801449 
618.85 -57.5109154451856 79.3011428533604 -7.70358984466193e-06 -10.6988571466303 -7.70358984321543e-06 -10.6988571466303 -57.5109154451855 79.3011428533705 
623.8 -57.442528658893 79.2155659289855 -7.82585571891488e-06 -10.7844340710075 -7.82585571698622e-06 -10.7844340710075 -57.4425286588927 79.215565928993 
628.75 -57.3746953281927 79.1299890070293 -7.94904903349804e-06 -10.8700109929663 -7.94904903301587e-06 -10.8700109929663 -57.3746953281945 79.129989007033 
633.7 -57.3074068754392 79.0444120875223 -8.07316869445879e-06 -10.9555879124886 -8.07316869494095e-06 -10.9555879124886 -57.3074068754388 79.0444120875122 
638.65 -57.2406549232297 78.958835170446 -8.19821359048704e-06 -11.0411648295559 -8.19821359096921e-06 -11.0411648295558 -57.2406549232321 78.958835170447 
643.6 -57.1744312882537 78.8732582558472 -8.3241826073802e-06 -11.1267417441501 -8.32418260641587e-06 -11.1267417441501 -57.174431288255 78.8732582558548 
648.55 -57.1087279753039 78.7876813437451 -8.45107461984634e-06 -11.2123186562531 -8.45107461839984e-06 -11.2123186562531 -57.1087279753058 78.7876813437472 
653.5 -57.0435371715543 78.7021044341597 -8.57888849584367e-06 -11.2978955658466 -8.57888849584367e-06 -11.2978955658466 -57.043537171554 78.7021044341498 
658.45 -56.9788512411146 78.6165275270836 -8.7076230960984e-06 -11.3834724729124 -8.70762309465191e-06 -11.3834724729124 -56.9788512411134 78.6165275270879 
663.4 -56.9146627196452 78.530950622567 -8.83727726880091e-06 -11.4690493774325 -8.83727726880091e-06 -11.4690493774325 -56.9146627196462 78.5309506225658 
668.35 -56.8509643093461 78.4453737206114 -8.96784986021336e-06 -11.5546262793888 -8.96784986069552e-06 -11.5546262793888 -56.850964309348 78.4453737206078 
673.3 -56.7877488739383 78.3597968212399 -9.09933970743722e-06 -11.6402031787631 -9.09933970695505e-06 -11.6402031787631 -56.7877488739391 78.3597968212393 
678.25 -56.7250094340392 78.2742199244624 -9.23174562973432e-06 -11.7257800755374 -9.23174562973432e-06 -11.7257800755374 -56.7250094340395 78.2742199244633 
683.2 -56.6627391625043 78.1886430303035 -9.36506645167072e-06 -11.8113569696937 -9.36506645070639e-06 -11.8113569696937 -56.6627391625038 78.1886430303053 
688.15 -56.6009313801063 78.1030661387886 -9.49930098093717e-06 -11.8969338612139 -9.49930097949068e-06 -11.8969338612139 -56.6009313801046 78.103066138786 
693.1 -56.5395795512267 78.0174892499148 -9.63444801992102e-06 -11.9825107500799 -9.63444801751019e-06 -11.9825107500799 -56.5395795512278 78.0174892499212 
698.05 -56.4786772798645 77.9319123637303 -9.77050636040242e-06 -12.0680876362741 -9.77050636233107e-06 -12.0680876362741 -56.4786772798635 77.9319123637233 
703 -56.4182183055552 77.8463354802117 -9.90747479512627e-06 -12.1536645197782 -9.90747479223328e-06 -12.1536645197782 -56.4182183055532 77.8463354802243 
707.95 -56.3581964996909 77.7607585994292 -1.00453520951405e-05 -12.2392414005744 -1.00453520951405e-05 -12.2392414005744 -56.3581964996904 77.7607585994257 
712.9 -56.2986058617716 77.6751817213532 -1.01841370319756e-05 -12.3248182786448 -1.01841370324577e-05 -12.3248182786448 -56.2986058617698 77.6751817213548 
717.85 -56.239440515896 77.5896048460262 -1.03238283684834e-05 -12.4103951539716 -1.03238283689656e-05 -12.4103951539716 -56.2394405158969 77.5896048460256 
722.8 -56.180694707327 77.5040279734694 -1.04644248588375e-05 -12.495972026537 -1.04644248593196e-05 -12.495972026537 -56.1806947073275 77.5040279734647 
727.75 -56.1223627991444 77.4184511036753 -1.06059252432287e-05 -12.5815488963228 -1.06059252432287e-05 -12.5815488963228 -56.1223627991439 77.4184511036788 
732.7 -56.0644392691472 77.3328742366872 -1.07483282657057e-05 -12.6671257633116 -1.07483282666701e-05 -12.6671257633116 -56.0644392691491 77.3328742366893 
737.65 -56.0069187066638 77.2472973725199 -1.08916326524777e-05 -12.7527026274856 -1.08916326524777e-05 -12.7527026274856 -56.0069187066635 77.2472973725139 
742.6 -55.9497958095983 77.1617205111734 -1.10358371230037e-05 -12.8382794888268 -1.10358371230037e-05 -12.8382794888268 -55.9497958095991 77.1617205111731 
747.55 -55.8930653815795 77.076143652677 -1.11809403914393e-05 -12.9238563473176 -1.11809403919215e-05 -12.9238563473176 -55.8930653815804 77.0761436526845 
752.5 -55.8367223291509 76.9905667970599 -1.13269411656725e-05 -13.0094332029404 -1.13269411656725e-05 -13.0094332029404 -55.8367223291513 76.9905667970594 
757.45 -55.7807616590526 76.9049899443299 -1.14738381400909e-05 -13.0950100556776 -1.14738381420196e-05 -13.0950100556776 -55.7807616590534 76.9049899443179 
762.4 -55.7251784756114 76.8194130944942 -1.16216300052254e-05 -13.1805869055112 -1.16216300061897e-05 -13.1805869055112 -55.7251784756111 76.8194130944879 
767.35 -55.6699679782511 76.7338362475749 -1.17703154429279e-05 -13.2661637524238 -1.17703154414814e-05 -13.2661637524238 -55.6699679782499 76.7338362475775 
772.3 -55.6151254590203 76.6482594036008 -1.19198931220327e-05 -13.3517405963978 -1.19198931215505e-05 -13.3517405963978 -55.6151254590217 76.6482594036021 
777.25 -55.5606463002169 76.562682562586 -1.20703617128205e-05 -13.4373174374155 -1.20703617128205e-05 -13.4373174374155 -55.5606463002169 76.5626825625833 
782.2 -55.5065259721339 76.4771057245377 -1.22217198701435e-05 -13.5228942754597 -1.22217198696613e-05 -13.5228942754597 -55.5065259721353 76.4771057245376 
787.15 -55.4527600307815 76.3915288894839 -1.23739662440322e-05 -13.6084711105127 -1.23739662430679e-05 -13.6084711105127 -55.4527600307813 76.3915288894877 
792.1 -55.3993441157811 76.3059520574378 -1.25270994753567e-05 -13.6940479425568 -1.25270994743924e-05 -13.6940479425568 -55.3993441157815 76.3059520574455 
797.05 -55.3462739482763 76.2203752284271 -1.26811181972726e-05 -13.7796247715748 -1.26811181972726e-05 -13.7796247715748 -55.3462739482757 76.2203752284248 
802 -55.2935453289182 76.1347984024572 -1.28360210385964e-05 -13.8652015975492 -1.28360210390785e-05 -13.8652015975492 -55.2935453289192 76.1347984024519 
806.95 -55.2411541358746 76.0492215795368 -1.29918066117512e-05 -13.9507784204626 -1.29918066112691e-05 -13.9507784204626 -55.2411541358744 76.0492215795349 
811.9 -55.189096322969 75.9636447597026 -1.31484735301251e-05 -14.0363552402974 -1.31484735310894e-05 -14.0363552402975 -55.1890963229682 75.963644759703 
816.85 -55.1373679178358 75.8780679429621 -1.33060203960164e-05 -14.1219320570366 -1.33060203955342e-05 -14.1219320570366 -55.1373679178351 75.8780679429635 
821.8 -55.0859650201296 75.7924911293404 -1.34644458025627e-05 -14.2075088706626 -1.34644458025627e-05 -14.2075088706626 -55.0859650201299 75.7924911293343 
826.75 -55.0348837998075 75.7069143188438 -1.36237483361518e-05 -14.2930856811584 -1.36237483351875e-05 -14.2930856811584 -55.0348837998071 75.7069143188447 
831.7 -54.9841204954086 75.6213375114887 -1.37839265740104e-05 -14.3786624885064 -1.37839265715996e-05 -14.3786624885064 -54.9841204954081 75.6213375114958 
836.65 -54.9336714124883 75.5357607073087 -1.39449790866154e-05 -14.4642392926896 -1.39449790870975e-05 -14.4642392926896 -54.9336714124891 75.5357607073105 
841.6 -54.883532922001 75.4501839063117 -1.41069044405865e-05 -14.5498160936907 -1.41069044401043e-05 -14.5498160936907 -54.8835329220004 75.4501839063079 
846.55 -54.8337014587529 75.3646071085045 -1.42697011866326e-05 -14.6353928914924 -1.42697011861504e-05 -14.6353928914924 -54.8337014587538 75.3646071085094 
851.5 -54.7841735199644 75.2790303139257 -1.44333678749803e-05 -14.7209696860777 -1.44333678749803e-05 -14.7209696860777 -54.7841735199623 75.2790303139232 
856.45 -54.7349456637623 75.1934535225733 -1.45979030428385e-05 -14.8065464774294 -1.45979030438028e-05 -14.8065464774294 -54.7349456637621 75.1934535225697 
861.4 -54.6860145078145 75.1078767344658 -1.4763305224523e-05 -14.8921232655304 -1.47633052240408e-05 -14.8921232655304 -54.6860145078132 75.1078767344704 
866.35 -54.6373767279692 75.0222999496319 -1.49295729418138e-05 -14.9777000503638 -1.49295729403673e-05 -14.9777000503638 -54.6373767279684 75.0222999496364 
871.3 -54.5890290568851 74.9367231680879 -1.5096704713116e-05 -15.0632768319123 -1.50967047126339e-05 -15.0632768319123 -54.5890290568844 74.9367231680903 
876.25 -54.5409682828063 74.8511463898426 -1.52646990433345e-05 -15.148853610159 -1.5264699044781e-05 -15.148853610159 -54.5409682828071 74.8511463898415 
881.2 -54.4931912482549 74.7655696149174 -1.54335544393029e-05 -15.234430385087 -1.54335544393029e-05 -15.234430385087 -54.4931912482549 74.7655696149144 
886.15 -54.4456948488506 74.6799928433222 -1.56032693885685e-05 -15.3200071566792 -1.5603269387122e-05 -15.3200071566792 -54.4456948488495 74.6799928433226 
891.1 -54.3984760321061 74.5944160750798 -1.57738423786791e-05 -15.4055839249188 -1.57738423781969e-05 -15.4055839249188 -54.3984760321052 74.5944160750816 
896.05 -54.351531796294 74.5088393102118 -1.59452718875392e-05 -15.4911606897888 -1.59452718875392e-05 -15.4911606897888 -54.3515317962943 74.5088393102087 
901 -54.3048591893198 74.4232625487316 -1.61175563882321e-05 -15.5767374512724 -1.61175563872677e-05 -15.5767374512724 -54.3048591893204 74.4232625487314 
905.95 -54.2584553076393 74.3376857906511 -1.62906943369653e-05 -15.6623142093528 -1.62906943379297e-05 -15.6623142093528 -54.2584553076396 74.3376857906479 
910.9 -54.2123172951799 74.2521090359879 -1.64646841942865e-05 -15.7478909640132 -1.64646841947687e-05 -15.7478909640132 -54.2123172951812 74.2521090359847 
915.85 -54.1664423423454 74.1665322847655 -1.66395244057961e-05 -15.8334677152367 -1.66395244062782e-05 -15.8334677152367 -54.166442342344 74.1665322847646 
920.8 -54.1208276849874 74.0809555369917 -1.68152134108267e-05 -15.9190444630067 -1.68152134108267e-05 -15.9190444630067 -54.1208276849873 74.0809555369917 
925.75 -54.0754706034406 73.9953787926941 -1.69917496434075e-05 -16.0046212073063 -1.69917496434075e-05 -16.0046212073063 -54.0754706034403 73.9953787926955 
930.7 -54.0303684215929 73.9098020518847 -1.71691315269602e-05 -16.0901979481191 -1.71691315269602e-05 -16.0901979481191 -54.0303684215933 73.9098020518836 
935.65 -53.9855185059181 73.8242253145703 -1.73473574776741e-05 -16.1757746854284 -1.73473574767097e-05 -16.1757746854284 -53.9855185059199 73.8242253145709 
940.6 -53.9409182646023 73.7386485807808 -1.75264259040242e-05 -16.2613514192173 -1.75264259045064e-05 -16.2613514192173 -53.9409182646013 73.7386485807811 
945.55 -53.8965651466815 73.6530718505305 -1.77063352135216e-05 -16.3469281494695 -1.77063352130394e-05 -16.3469281494695 -53.8965651466807 73.6530718505312 