! AWR Design Environment (17415) Thu Nov  7 11:21:40 2024
! Document = 'Microstrip50ohm'
! nPorts: 2, nXvals: 201

# MHz S DB R 50
!Freq DBS11 AngS11 DBS21 AngS21 DBS12 AngS12 DBS22 AngS22 
10 -68.3023002676786 -1.60690206041384 -0.00660520857947976 -1.60701754239554 -0.00660520857947927 -1.60701754239543 -68.3023002676838 -1.60690206069597 
14.95 -67.5580107739258 -2.40194528746046 -0.00852004963709024 -2.40259709946104 -0.00852004963708879 -2.40259709946112 -67.5580107739298 -2.40194528727911 
19.9 -67.2626169103735 -3.1969824465264 -0.0102622855390522 -3.19816905653036 -0.0102622855390527 -3.19816905653031 -67.2626169103712 -3.19698244663104 
24.85 -67.2279324088239 -3.99195650732188 -0.0118938986699113 -3.993736128433 -0.0118938986699118 -3.99373612843298 -67.227932408822 -3.99195650735639 
29.8 -67.3756504965465 -4.78685487093654 -0.0134468017231015 -4.78929971586062 -0.0134468017231001 -4.78929971586073 -67.3756504965478 -4.7868548706936 
34.75 -67.6690976275043 -5.58167473130342 -0.0149399954577084 -5.58486065403124 -0.0149399954577113 -5.58486065403119 -67.669097627503 -5.58167473142626 
39.7 -68.0918488588167 -6.37641603029649 -0.0163858783470645 -6.38041948893005 -0.0163858783470655 -6.38041948893005 -68.0918488588162 -6.37641603029184 
44.65 -68.6397295363378 -7.17107954716925 -0.0177930713803657 -7.17597660116592 -0.0177930713803657 -7.1759766011659 -68.6397295363359 -7.171079547203 
49.6 -69.3179459633749 -7.96566627627548 -0.0191678562471639 -7.9715322690562 -0.0191678562471648 -7.97153226905616 -69.3179459633776 -7.96566627638972 
54.55 -70.1409268839831 -8.76017721635888 -0.0205149778631956 -8.76708670383144 -0.0205149778631956 -8.76708670383144 -70.1409268839837 -8.76017721637131 
59.5 -71.134441628226 -9.55461329626701 -0.0218381242149347 -9.5626400706749 -0.0218381242149333 -9.5626400706749 -71.1344416282306 -9.55461329626374 
64.45 -72.3408452346695 -10.3489753508056 -0.0231402292104152 -10.3581925019905 -0.0231402292104137 -10.3581925019904 -72.3408452346711 -10.3489753508871 
69.4 -73.8302981078558 -11.1432641206759 -0.0244236723352814 -11.1537441061419 -0.0244236723352819 -11.1537441061419 -73.8302981078485 -11.1432641207716 
74.35 -75.7260513450054 -11.9374802513535 -0.0256904150895342 -11.9492949734153 -0.0256904150895347 -11.9492949734153 -75.7260513449996 -11.93748025134 
79.3 -78.2701349594614 -12.7316243083684 -0.026942097074535 -12.7448451802149 -0.0269420970745365 -12.7448451802148 -78.2701349594633 -12.7316243085411 
84.25 -82.0426390207862 -13.5256967858398 -0.0281801054217511 -13.5403947920864 -0.0281801054217526 -13.5403947920863 -82.0426390207592 -13.5256967859531 
89.2 -89.1846002437789 -14.3196980986439 -0.029405626081216 -14.335943865946 -0.0294056260812165 -14.3359438659461 -89.1846002437858 -14.3196980982617 
94.15 -99.3649513223705 164.886371372275 -0.0306196824465905 -15.1314924517577 -0.0306196824465919 -15.1314924517577 -99.3649513223238 164.886371370545 
99.1 -84.8334701765966 164.092511354053 -0.0318231649406854 -15.9270405938104 -0.0318231649406854 -15.9270405938104 -84.8334701766173 164.092511354352 
104.05 -79.588202645832 163.298721560948 -0.0330168540198534 -16.7225883317108 -0.0330168540198524 -16.7225883317108 -79.5882026458347 163.29872156095 
109 -76.2911743797611 162.5050017912 -0.034201438302717 -17.5181357011622 -0.0342014383027156 -17.5181357011622 -76.2911743797636 162.505001791261 
113.95 -73.872889809203 161.711351878064 -0.0353775290295774 -18.3136827345837 -0.0353775290295769 -18.3136827345837 -73.8728898092045 161.711351878038 
118.9 -71.9585743956234 160.917771691243 -0.0365456717213992 -19.109229461606 -0.0365456717214007 -19.109229461606 -71.9585743956291 160.917771691254 
123.85 -70.3722567944449 160.124261137569 -0.0377063556739304 -19.9047759094741 -0.0377063556739314 -19.9047759094741 -70.3722567944409 160.124261137532 
128.8 -69.0169978742124 159.330820156977 -0.0388600217589069 -20.7003221033763 -0.0388600217589098 -20.7003221033763 -69.0169978742201 159.33082015701 
133.75 -67.8336254560965 158.537448722682 -0.0400070688872168 -21.4958680667153 -0.0400070688872168 -21.4958680667153 -67.8336254560915 158.537448722675 
138.7 -66.7833240191889 157.744146836778 -0.0411478594042837 -22.2914138213318 -0.0411478594042832 -22.2914138213318 -66.7833240191864 157.744146836796 
143.65 -65.839232265593 156.950914531092 -0.0422827236256 -23.0869593876928 -0.0422827236255966 -23.0869593876929 -65.8392322655886 156.95091453107 
148.6 -64.9819760085866 156.157751864118 -0.0434119636741889 -23.8825047850483 -0.0434119636741894 -23.8825047850483 -64.9819760085886 156.157751864131 
153.55 -64.1971123825623 155.364658920713 -0.0445358567470038 -24.6780500315635 -0.0445358567470038 -24.6780500315635 -64.1971123825621 155.364658920705 
158.5 -63.4735806154625 154.571635811048 -0.0456546579106961 -25.4735951444319 -0.0456546579106951 -25.4735951444319 -63.4735806154627 154.571635811056 
163.45 -62.8027179920507 153.778682669837 -0.0467686025071486 -26.2691401399702 -0.0467686025071505 -26.2691401399702 -62.8027179920527 153.778682669842 
168.4 -62.1776101725867 152.985799655396 -0.0478779082333077 -27.0646850337006 -0.0478779082333077 -27.0646850337006 -62.1776101725862 152.985799655399 
173.35 -61.5926480729127 152.192986949016 -0.0489827769475613 -27.86022984042 -0.0489827769475627 -27.86022984042 -61.5926480729142 152.192986949023 
178.3 -61.0432171177775 151.400244754776 -0.050083396245453 -28.6557745742611 -0.050083396245454 -28.6557745742611 -61.0432171177775 151.400244754779 
183.25 -60.5254740294717 150.607573298674 -0.051179940839623 -29.4513192487434 -0.0511799408396216 -29.4513192487434 -60.5254740294704 150.607573298671 
188.2 -60.0361830985663 149.814972828671 -0.0522725737729627 -30.246863876819 -0.0522725737729627 -30.246863876819 -60.0361830985661 149.814972828669 
193.15 -59.5725938486653 149.022443614031 -0.0533614474889322 -31.0424084709109 -0.0533614474889332 -31.0424084709109 -59.5725938486673 149.022443614025 
198.1 -59.1323481202497 148.22998594529 -0.054446704779062 -31.8379530429469 -0.054446704779061 -31.8379530429469 -59.1323481202486 148.229985945295 
203.05 -58.7134084581912 147.437600134136 -0.0555284796244168 -32.6334976043892 -0.0555284796244188 -32.6334976043892 -58.7134084581915 147.437600134145 
208 -58.3140021872553 146.645286513118 -0.0566068979451792 -33.4290421662599 -0.0566068979451802 -33.42904216626 -58.3140021872568 146.64528651312 
212.95 -57.9325772160717 145.853045435627 -0.0576820782702869 -34.2245867391635 -0.0576820782702869 -34.2245867391636 -57.9325772160732 145.853045435627 
217.9 -57.5677667304058 145.06087727564 -0.0587541323373109 -35.0201313333059 -0.0587541323373109 -35.0201313333059 -57.5677667304046 145.060877275639 
222.85 -57.2183607082834 144.268782428247 -0.0598231656312334 -35.8156759585121 -0.0598231656312334 -35.8156759585121 -57.2183607082827 144.268782428252 
227.8 -56.883282730373 143.476761309184 -0.060889277869545 -36.6112206242412 -0.060889277869546 -36.6112206242412 -56.8832827303731 143.476761309189 
232.75 -56.5615709438173 142.684814355068 -0.061952563440069 -37.4067653395988 -0.0619525634400671 -37.4067653395988 -56.5615709438164 142.684814355066 
237.7 -56.2523623154302 141.892942023552 -0.0630131117969765 -38.2023101133494 -0.06301311179698 -38.2023101133494 -56.252362315431 141.89294202356 
242.65 -55.9548795132602 141.101144793477 -0.0640710078198078 -38.9978549539258 -0.0640710078198088 -38.9978549539258 -55.9548795132607 141.101144793481 
247.6 -55.6684199056356 140.309423164887 -0.0651263321395572 -39.7933998694384 -0.0651263321395572 -39.7933998694384 -55.6684199056354 140.309423164891 
252.55 -55.3923462793216 139.517777659464 -0.0661791614355122 -40.588944867683 -0.0661791614355122 -40.588944867683 -55.3923462793222 139.517777659462 
257.5 -55.1260789633071 138.726208820487 -0.0672295687059189 -41.3844899561472 -0.0672295687059189 -41.3844899561472 -55.1260789633068 138.726208820485 
262.45 -54.8690891095989 137.934717213333 -0.0682776235152494 -42.1800351420172 -0.0682776235152489 -42.1800351420172 -54.8690891095988 137.934717213332 
267.4 -54.620892932352 137.143303425625 -0.0693233922204974 -42.9755804321824 -0.0693233922204974 -42.9755804321824 -54.6208929323522 137.143303425624 
272.35 -54.3810467454141 136.351968067626 -0.0703669381786129 -43.7711258332409 -0.0703669381786104 -43.7711258332409 -54.3810467454141 136.351968067621 
277.3 -54.1491426687462 135.560711772488 -0.0714083219369546 -44.5666713515031 -0.0714083219369561 -44.5666713515031 -54.1491426687464 135.560711772483 
282.25 -53.9248048980801 134.769535196712 -0.0724476014084434 -45.3622169929955 -0.0724476014084434 -45.3622169929955 -53.9248048980799 134.769535196709 
287.2 -53.7076864512003 133.978439020512 -0.0734848320328329 -46.1577627634647 -0.0734848320328334 -46.1577627634647 -53.7076864512006 133.978439020512 
292.15 -53.4974663194209 133.187423948236 -0.0745200669254722 -46.9533086683795 -0.0745200669254707 -46.9533086683795 -53.4974663194203 133.187423948234 
297.1 -53.2938469650248 132.396490708827 -0.0755533570146766 -47.7488547129342 -0.0755533570146756 -47.7488547129342 -53.2938469650242 132.396490708825 
302.05 -53.0965521153455 131.605640056282 -0.0765847511687592 -48.5444009020509 -0.0765847511687592 -48.5444009020509 -53.0965521153459 131.605640056279 
307 -52.9053248121772 130.814872770228 -0.0776142963136687 -49.3399472403817 -0.0776142963136682 -49.3399472403817 -52.9053248121769 130.814872770224 
311.95 -52.7199256817864 130.024189656363 -0.0786420375420228 -50.1354937323111 -0.0786420375420219 -50.1354937323111 -52.719925681787 130.024189656368 
316.9 -52.5401313962125 129.233591547132 -0.0796680182143182 -50.9310403819573 -0.0796680182143207 -50.9310403819573 -52.5401313962135 129.233591547138 
321.85 -52.3657333009748 128.443079302238 -0.0806922800530134 -51.7265871931749 -0.0806922800530144 -51.7265871931749 -52.365733300975 128.443079302242 
326.8 -52.1965361880336 127.652653809313 -0.0817148632299846 -52.5221341695559 -0.0817148632299846 -52.5221341695559 -52.1965361880335 127.652653809314 
331.75 -52.0323571959266 126.86231598462 -0.082735806448034 -53.3176813144322 -0.0827358064480365 -53.3176813144322 -52.0323571959272 126.862315984623 
336.7 -51.8730248215745 126.072066773647 -0.0837551470168405 -54.1132286308764 -0.0837551470168415 -54.1132286308764 -51.8730248215747 126.072066773652 
341.65 -51.718378030419 125.281907151908 -0.0847729209238477 -54.908776121704 -0.0847729209238482 -54.908776121704 -51.7183780304188 125.28190715191 
346.6 -51.5682654533972 124.49183812573 -0.0857891629004808 -55.7043237894752 -0.0857891629004798 -55.7043237894752 -51.5682654533971 124.491838125729 
351.55 -51.4225446607874 123.701860732979 -0.0868039064840408 -56.499871636496 -0.0868039064840403 -56.499871636496 -51.4225446607871 123.701860732978 
356.5 -51.28108150427 122.91197604394 -0.0878171840756617 -57.2954196648203 -0.0878171840756607 -57.2954196648203 -51.2810815042698 122.911976043941 
361.45 -51.1437495196851 122.122185162215 -0.0888290269945545 -58.0909678762516 -0.0888290269945545 -58.0909678762516 -51.143749519685 122.122185162216 
366.4 -51.0104293839078 121.332489225569 -0.0898394655288956 -58.8865162723448 -0.0898394655288971 -58.8865162723448 -51.0104293839081 121.332489225574 
371.35 -50.881008420088 120.542889406979 -0.0908485289835511 -59.6820648544079 -0.0908485289835511 -59.6820648544079 -50.8810084200877 120.54288940698 
376.3 -50.7553801461983 119.753386915541 -0.0918562457249028 -60.477613623504 -0.0918562457249018 -60.477613623504 -50.7553801461983 119.75338691554 
381.25 -50.6334438624663 118.96398299759 -0.0928626432229678 -61.2731625804533 -0.0928626432229693 -61.2731625804533 -50.6334438624666 118.963982997593 
386.2 -50.5151042737525 118.174678937754 -0.0938677480910148 -62.0687117258353 -0.0938677480910138 -62.0687117258353 -50.5151042737525 118.174678937754 
391.15 -50.400271143425 117.385476060105 -0.0948715861228475 -62.8642610599908 -0.094871586122846 -62.8642610599908 -50.400271143425 117.385476060103 
396.1 -50.2888589756714 116.596375729346 -0.095874182327931 -63.6598105830241 -0.095874182327931 -63.6598105830241 -50.2888589756714 116.596375729348 
401.05 -50.180786723512 115.80737935207 -0.0968755609644959 -64.4553602948057 -0.0968755609644959 -64.4553602948057 -50.1807867235122 115.80737935207 
406 -50.0759775201118 115.018488378034 -0.0978757455707454 -65.2509101949746 -0.0978757455707479 -65.2509101949746 -50.0759775201121 115.018488378035 
410.95 -49.9743584312275 114.229704301582 -0.0988747589943618 -66.0464602829407 -0.0988747589943623 -66.0464602829407 -49.9743584312276 114.229704301582 
415.9 -49.8758602268689 113.441028662976 -0.0998726234203021 -66.8420105578878 -0.0998726234203001 -66.8420105578878 -49.8758602268688 113.441028662972 
420.85 -49.7804171704579 112.652463049918 -0.100869360397135 -67.6375610187762 -0.100869360397135 -67.6375610187762 -49.7804171704579 112.652463049916 
425.8 -49.6879668239411 111.864009099152 -0.101864990861922 -68.4331116643459 -0.101864990861921 -68.4331116643459 -49.6879668239411 111.86400909915 
430.75 -49.598449867477 111.075668497989 -0.102859535163747 -69.2286624931192 -0.10285953516375 -69.2286624931192 -49.5984498674771 111.075668497993 
435.7 -49.5118099324557 110.287442986092 -0.103853013086037 -70.0242135034044 -0.103853013086035 -70.0242135034044 -49.5118099324556 110.28744298609 
440.65 -49.4279934467334 109.499334357177 -0.104845443867667 -70.8197646932988 -0.104845443867667 -70.8197646932988 -49.4279934467334 109.499334357175 
445.6 -49.3469494910776 108.711344460893 -0.105836846223014 -71.6153160606919 -0.105836846223014 -71.6153160606918 -49.3469494910773 108.711344460891 
450.55 -49.2686296659085 107.923475204763 -0.106827238360938 -72.4108676032693 -0.106827238360939 -72.4108676032693 -49.2686296659086 107.923475204765 
455.5 -49.1929879675253 107.13572855621 -0.107816638002844 -73.2064193185164 -0.107816638002841 -73.2064193185164 -49.1929879675252 107.135728556206 
460.45 -49.1199806730607 106.348106544621 -0.10880506239978 -74.0019712037218 -0.108805062399781 -74.0019712037218 -49.1199806730609 106.348106544621 
465.4 -49.049566233507 105.56061126366 -0.109792528348757 -74.7975232559814 -0.109792528348758 -74.7975232559814 -49.0495662335072 105.560611263662 
470.35 -48.9817051741876 104.773244873513 -0.110779052208206 -75.5930754722024 -0.110779052208209 -75.5930754722024 -48.9817051741878 104.773244873514 
475.3 -48.9163600021327 103.986009603343 -0.111764649912712 -76.3886278491076 -0.11176464991271 -76.3886278491076 -48.9163600021326 103.986009603341 
480.25 -48.853495119846 103.198907753817 -0.112749336987034 -77.1841803832391 -0.112749336987033 -77.1841803832391 -48.853495119846 103.198907753816 
485.2 -48.7930767450121 102.41194169982 -0.113733128559466 -77.9797330709634 -0.113733128559468 -77.9797330709634 -48.7930767450121 102.411941699822 
490.15 -48.7350728357219 101.625113893173 -0.114716039374571 -78.7752859084753 -0.114716039374572 -78.7752859084753 -48.735072835722 101.625113893174 
495.1 -48.6794530208392 100.838426865628 -0.115698083805306 -79.5708388918027 -0.115698083805305 -79.5708388918027 -48.6794530208392 100.838426865628 
500.05 -48.6261885351616 100.051883231872 -0.116679275864605 -80.366392016811 -0.116679275864605 -80.3663920168111 -48.6261885351617 100.051883231873 
505 -48.5752521590612 99.265485692831 -0.117659629216453 -81.1619452792087 -0.117659629216452 -81.1619452792087 -48.5752521590612 99.2654856928332 
509.95 -48.5266181623138 98.4792370389517 -0.118639157186421 -81.9574986745511 -0.118639157186422 -81.9574986745511 -48.5266181623138 98.4792370389532 
514.9 -48.4802622518589 97.6931401538326 -0.11961787277179 -82.7530521982464 -0.11961787277179 -82.7530521982464 -48.480262251859 97.6931401538338 
519.85 -48.4361615232457 96.9071980178702 -0.120595788651165 -83.5486058455598 -0.120595788651164 -83.5486058455598 -48.4361615232457 96.9071980178674 
524.8 -48.394294415549 96.1214137122087 -0.121572917193762 -84.3441596116196 -0.121572917193761 -84.3441596116196 -48.394294415549 96.1214137122074 
529.75 -48.3546406695557 95.3357904228551 -0.122549270468206 -85.1397134914217 -0.122549270468204 -85.1397134914217 -48.3546406695557 95.335790422853 
534.7 -48.3171812890379 94.5503314449616 -0.123524860251029 -85.9352674798355 -0.123524860251028 -85.9352674798355 -48.3171812890378 94.5503314449579 
539.65 -48.2818985049486 93.765040187409 -0.124499698034791 -86.7308215716088 -0.124499698034789 -86.7308215716088 -48.2818985049486 93.7650401874023 
544.6 -48.2487757423882 92.9799201775116 -0.125473795035853 -87.5263757613739 -0.125473795035855 -87.5263757613739 -48.2487757423882 92.9799201775128 
549.55 -48.2177975902051 92.1949750661285 -0.126447162201873 -88.3219300436528 -0.126447162201875 -88.3219300436528 -48.2177975902051 92.1949750661287 
554.5 -48.1889497731059 91.4102086328782 -0.127419810218974 -89.1174844128626 -0.127419810218974 -89.1174844128626 -48.1889497731059 91.4102086328787 
559.45 -48.1622191261627 90.6256247917435 -0.128391749518636 -89.913038863322 -0.128391749518636 -89.913038863322 -48.1622191261627 90.6256247917458 
564.4 -48.1375935716168 89.841227596947 -0.129362990284354 -90.7085933892563 -0.129362990284351 -90.7085933892563 -48.1375935716168 89.841227596945 
569.35 -48.1150620978868 89.057021249086 -0.130333542457986 -91.5041479848036 -0.130333542457986 -91.5041479848036 -48.1150620978868 89.0570212490839 
574.3 -48.0946147407004 88.2730101017418 -0.131303415745929 -92.2997026440208 -0.131303415745928 -92.2997026440208 -48.0946147407004 88.2730101017442 
579.25 -48.0762425662777 87.4891986682842 -0.132272619625014 -93.095257360889 -0.132272619625016 -93.095257360889 -48.0762425662777 87.4891986682868 
584.2 -48.0599376565026 86.7055916291652 -0.133241163348232 -93.89081212932 -0.133241163348233 -93.89081212932 -48.0599376565026 86.7055916291677 
589.15 -48.0456930960269 85.9221938396152 -0.134209055950215 -94.6863669431624 -0.134209055950214 -94.6863669431624 -48.0456930960268 85.9221938396147 
594.1 -48.0335029612597 85.1390103377094 -0.135176306252566 -95.4819217962068 -0.135176306252567 -95.4819217962068 -48.0335029612597 85.1390103377071 
599.05 -48.0233623112034 84.3560463529475 -0.136142922868991 -96.2774766821932 -0.136142922868992 -96.2774766821932 -48.0233623112034 84.3560463529495 
604 -48.0152671801011 83.573307315347 -0.137108914210251 -97.0730315948156 -0.137108914210252 -97.0730315948156 -48.0152671801012 83.573307315346 
608.95 -48.0092145718748 82.7907988649793 -0.138074288488963 -97.8685865277295 -0.138074288488963 -97.8685865277295 -48.0092145718748 82.7907988649825 
613.9 -48.0052024563297 82.0085268621862 -0.13903905372424 -98.6641414745572 -0.139039053724239 -98.6641414745572 -48.0052024563297 82.0085268621856 
618.85 -48.0032297671201 81.2264973982681 -0.140003217746193 -99.4596964288941 -0.140003217746194 -99.4596964288941 -48.0032297671201 81.2264973982692 
623.8 -48.003296401466 80.444716806929 -0.140966788200308 -100.255251384315 -0.140966788200307 -100.255251384315 -48.003296401466 80.4447168069295 
628.75 -48.0054032216265 79.6631916763602 -0.141929772551626 -101.050806334381 -0.141929772551624 -101.050806334381 -48.0054032216265 79.6631916763581 
633.7 -48.0095520581363 78.8819288620303 -0.142892178088905 -101.846361272643 -0.142892178088905 -101.846361272643 -48.0095520581363 78.8819288620332 
638.65 -48.015745714823 78.1009355003817 -0.143854011928566 -102.641916192651 -0.143854011928567 -102.641916192651 -48.0157457148229 78.1009355003804 
643.6 -48.0239879756256 77.3202190231933 -0.144815281018588 -103.437471087959 -0.144815281018589 -103.437471087959 -48.0239879756256 77.3202190231943 
648.55 -48.0342836132465 76.5397871730397 -0.145775992142268 -104.23302595213 -0.145775992142268 -104.23302595213 -48.0342836132465 76.5397871730393 
653.5 -48.0466383996707 75.759648019616 -0.146736151921888 -105.028580778745 -0.146736151921887 -105.028580778745 -48.0466383996708 75.7596480196127 
658.45 -48.0610591186012 74.9798099771504 -0.147695766822294 -105.824135561406 -0.147695766822294 -105.824135561406 -48.0610591186011 74.9798099771505 
663.4 -48.0775535798573 74.200281822946 -0.14865484315438 -106.619690293742 -0.14865484315438 -106.619690293742 -48.0775535798575 74.2002818229488 
668.35 -48.0961306358051 73.4210727171346 -0.14961338707848 -107.415244969419 -0.149613387078479 -107.415244969419 -48.0961306358052 73.4210727171319 
673.3 -48.1168001998791 72.6421922237759 -0.150571404607681 -108.210799582141 -0.150571404607681 -108.210799582141 -48.116800199879 72.6421922237764 
678.25 -48.1395732672831 71.8636503332914 -0.151528901611069 -109.006354125659 -0.151528901611069 -109.006354125659 -48.1395732672833 71.8636503332886 
683.2 -48.1644619379554 71.0854574865287 -0.152485883816895 -109.801908593775 -0.152485883816894 -109.801908593775 -48.1644619379554 71.0854574865302 
688.15 -48.1914794418934 70.30762460042 -0.15344235681565 -110.59746298035 -0.153442356815649 -110.59746298035 -48.1914794418933 70.3076246004222 
693.1 -48.2206401669556 69.5301630954007 -0.154398326063124 -111.393017279307 -0.154398326063122 -111.393017279307 -48.2206401669558 69.5301630953987 
698.05 -48.2519596892584 68.7530849248319 -0.155353796883353 -112.18857148464 -0.155353796883353 -112.18857148464 -48.2519596892585 68.7530849248314 
703 -48.2854548062996 67.9764026064339 -0.156308774471528 -112.984125590415 -0.156308774471527 -112.984125590415 -48.2854548062996 67.9764026064327 
707.95 -48.321143572967 67.2001292560457 -0.157263263896852 -113.779679590781 -0.157263263896855 -113.779679590781 -48.3211435729669 67.2001292560493 
712.9 -48.3590453405864 66.4242786238336 -0.158217270105326 -114.575233479971 -0.158217270105327 -114.575233479971 -48.3590453405864 66.424278623835 
717.85 -48.3991807991981 65.6488651330849 -0.1591707979225 -115.37078725231 -0.159170797922501 -115.37078725231 -48.3991807991978 65.6488651330846 
722.8 -48.4415720232509 64.8739039220961 -0.160123852056161 -116.166340902217 -0.16012385205616 -116.166340902217 -48.4415720232509 64.8739039220923 
727.75 -48.4862425209441 64.0994108889574 -0.161076437098988 -116.961894424216 -0.16107643709899 -116.961894424216 -48.486242520944 64.0994108889578 
732.7 -48.5332172874436 63.3254027400455 -0.162028557531165 -117.757447812935 -0.162028557531165 -117.757447812935 -48.5332172874435 63.3254027400472 
737.65 -48.5825228622458 62.551897042076 -0.162980217722914 -118.553001063114 -0.162980217722913 -118.553001063114 -48.5825228622458 62.551897042075 
742.6 -48.6341873909729 61.7789122783062 -0.16393142193704 -119.34855416961 -0.163931421937039 -119.34855416961 -48.634187390973 61.7789122783035 
747.55 -48.6882406919164 61.0064679092751 -0.164882174331413 -120.1441071274 -0.164882174331412 -120.1441071274 -48.6882406919166 61.0064679092766 
752.5 -48.7447143276799 60.2345844383568 -0.165832478961397 -120.939659931588 -0.165832478961398 -120.939659931588 -48.7447143276797 60.2345844383573 
757.45 -48.8036416823005 59.4632834827437 -0.166782339782278 -121.735212577408 -0.166782339782279 -121.735212577408 -48.8036416823006 59.463283482745 
762.4 -48.8650580442756 58.6925878502433 -0.167731760651624 -122.530765060229 -0.167731760651623 -122.530765060229 -48.8650580442757 58.6925878502427 
767.35 -48.9290006959524 57.9225216226062 -0.168680745331638 -123.326317375558 -0.168680745331637 -123.326317375558 -48.9290006959523 57.9225216226058 
772.3 -48.9955090097905 57.1531102459245 -0.169629297491467 -124.121869519047 -0.169629297491467 -124.121869519047 -48.9955090097905 57.1531102459275 
777.25 -49.0646245520709 56.3843806288618 -0.170577420709475 -124.917421486493 -0.170577420709476 -124.917421486493 -49.0646245520708 56.3843806288616 
782.2 -49.1363911946565 55.616361249471 -0.171525118475518 -125.712973273845 -0.171525118475519 -125.712973273845 -49.1363911946561 55.6163612494706 
787.15 -49.2108552355026 54.849082271568 -0.17247239419314 -126.50852487721 -0.172472394193139 -126.50852487721 -49.2108552355025 54.8490822715664 
792.1 -49.2880655286722 54.082575671653 -0.173419251181783 -127.304076292848 -0.173419251181785 -127.304076292848 -49.2880655286724 54.0825756716532 
797.05 -49.368073624695 53.3168753773573 -0.174365692678969 -128.099627517186 -0.17436569267897 -128.099627517186 -49.3680736246956 53.3168753773598 
802 -49.4509339222029 52.5520174189877 -0.175311721842424 -128.895178546814 -0.175311721842424 -128.895178546814 -49.4509339222031 52.5520174189891 
806.95 -49.5367038318776 51.7880400951843 -0.17625734175221 -129.690729378491 -0.176257341752211 -129.690729378491 -49.5367038318777 51.7880400951847 
811.9 -49.6254439538563 51.0249841547933 -0.177202555412823 -130.486280009148 -0.177202555412822 -130.486280009148 -49.6254439538565 51.0249841547959 
816.85 -49.7172182698831 50.2628929962279 -0.178147365755257 -131.281830435889 -0.178147365755257 -131.281830435889 -49.7172182698831 50.2628929962271 
821.8 -49.8120943516244 49.5018128868967 -0.17909177563907 -132.077380655999 -0.179091775639068 -132.077380655999 -49.8120943516245 49.5018128868949 
826.75 -49.9101435867489 48.7417932046311 -0.180035787854386 -132.872930666939 -0.180035787854385 -132.872930666939 -49.9101435867495 48.7417932046293 
831.7 -50.011441424559 47.9828867040287 -0.180979405123929 -133.668480466354 -0.180979405123929 -133.668480466354 -50.0114414245587 47.9828867040277 
836.65 -50.116067643158 47.2251498105853 -0.181922630104984 -134.464030052073 -0.181922630104986 -134.464030052073 -50.1160676431578 47.2251498105876 
841.6 -50.2241066404222 46.4686429461745 -0.182865465391372 -135.259579422113 -0.182865465391373 -135.259579422113 -50.2241066404221 46.4686429461748 
846.55 -50.335647751276 45.7134308897602 -0.183807913515388 -136.055128574679 -0.183807913515387 -136.055128574679 -50.3356477512764 45.713430889758 
851.5 -50.4507855941384 44.9595831779136 -0.184749976949713 -136.850677508166 -0.184749976949713 -136.850677508166 -50.450785594138 44.9595831779164 
856.45 -50.5696204497309 44.207174550384 -0.185691658109325 -137.646226221161 -0.185691658109326 -137.646226221161 -50.5696204497302 44.207174550382 
861.4 -50.6922586759081 43.4562854465626 -0.186632959353378 -138.441774712445 -0.186632959353375 -138.441774712445 -50.6922586759084 43.4562854465623 
866.35 -50.8188131626173 42.7070025601226 -0.187573882987044 -139.237322980993 -0.187573882987045 -139.237322980993 -50.8188131626173 42.7070025601266 
871.3 -50.9494038316721 41.9594194595003 -0.188514431263383 -140.032871025977 -0.188514431263381 -140.032871025977 -50.9494038316725 41.9594194594986 
876.25 -51.0841581866941 41.2136372838632 -0.189454606385115 -140.828418846764 -0.189454606385117 -140.828418846764 -51.0841581866942 41.2136372838635 
881.2 -51.2232119193111 40.4697655252946 -0.190394410506468 -141.62396644292 -0.190394410506469 -141.62396644292 -51.2232119193106 40.4697655252927 
886.15 -51.3667095785926 39.7279229099464 -0.191333845734915 -142.419513814209 -0.191333845734915 -142.419513814209 -51.3667095785928 39.7279229099446 
891.1 -51.5148053117494 38.9882383932621 -0.192272914132958 -143.215060960593 -0.192272914132957 -143.215060960593 -51.514805311749 38.988238393261 
896.05 -51.6676636853013 38.2508522865703 -0.193211617719842 -144.010607882234 -0.193211617719843 -144.010607882234 -51.6676636853011 38.2508522865688 
901 -51.8254605973965 37.5159175358153 -0.194149958473294 -144.80615457949 -0.194149958473294 -144.80615457949 -51.8254605973962 37.5159175358165 
905.95 -51.9883842935794 36.7836011771446 -0.195087938331202 -145.601701052922 -0.195087938331203 -145.601701052922 -51.9883842935793 36.7836011771495 
910.9 -52.1566365003486 36.054085998372 -0.196025559193291 -146.397247303285 -0.196025559193291 -146.397247303285 -52.1566365003489 36.0540859983698 
915.85 -52.3304336931881 35.3275724408644 -0.196962822922788 -147.192793331535 -0.196962822922789 -147.192793331535 -52.330433693188 35.3275724408684 
920.8 -52.5100085185593 34.6042807838273 -0.197899731348042 -147.988339138825 -0.197899731348042 -147.988339138825 -52.5100085185597 34.6042807838282 
925.75 -52.6956113927613 33.8844536609634 -0.19883628626414 -148.783884726503 -0.19883628626414 -148.783884726503 -52.695611392762 33.8844536609623 
930.7 -52.8875123045666 33.168358969835 -0.1997724894345 -149.579430096115 -0.1997724894345 -149.579430096115 -52.8875123045668 33.1683589698357 
935.65 -53.0860028534961 32.4562932473156 -0.200708342592433 -150.374975249401 -0.200708342592434 -150.374975249401 -53.0860028534958 32.4562932473148 
940.6 -53.2913985615014 31.7485856008122 -0.201643847442698 -151.170520188292 -0.201643847442699 -151.170520188292 -53.2913985615011 31.7485856008165 
945.55 -53.5040415030774 31.0456023045418 -0.202579005663009 -151.966064914914 -0.202579005663009 -151.966064914914 -53.5040415030768 31.045602304543 
950.5 -53.7243033076889 30.3477521960906 -0.203513818905554 -152.761609431581 -0.203513818905552 -152.761609431581 -53.7243033076896 30.3477521960873 
955.45 -53.9525885993125 29.6554930402348 -0.204448288798463 -153.557153740796 -0.204448288798463 -153.557153740796 -53.9525885993126 29.6554930402375 
960.4 -54.1893389513736 28.9693390682448 -0.205382416947274 -154.35269784525 -0.205382416947275 -154.35269784525 -54.189338951374 28.9693390682445 
965.35 -54.4350374521601 28.2898699545277 -0.206316204936348 -155.148241747815 -0.206316204936348 -155.148241747815 -54.4350374521611 28.2898699545299 
970.3 -54.6902139968376 27.617741558357 -0.207249654330293 -155.943785451548 -0.207249654330293 -155.943785451548 -54.6902139968382 27.6177415583524 
975.25 -54.9554514485995 26.9536988513365 -0.208182766675338 -156.739328959685 -0.208182766675338 -156.739328959685 -54.9554514486003 26.9536988513335 
980.2 -55.2313928451351 26.2985915643897 -0.209115543500704 -157.534872275637 -0.209115543500706 -157.534872275637 -55.2313928451352 26.2985915643933 