! AWR Design Environment (17415) Wed Nov  6 14:17:59 2024
! Document = 'Microstrip'
! nPorts: 2, nXvals: 201

# MHz S DB R 50
!Freq DBS11 AngS11 DBS21 AngS21 DBS12 AngS12 DBS22 AngS22 
10 -45.0962716125131 -89.1508667391276 -0.00620587893851109 -1.63835826100486 -0.00620587893851206 -1.63835826100484 -45.0962716125125 -89.1508667391254 
14.95 -41.6113053862384 -90.8426938898125 -0.00826444027238093 -2.44941828020073 -0.00826444027238238 -2.44941828020076 -41.6113053862388 -90.8426938898117 
19.9 -39.1327176596056 -92.1808634125112 -0.010246771466561 -3.26042047612973 -0.0102467714665634 -3.26042047612976 -39.1327176596059 -92.1808634125096 
24.85 -37.2084961519117 -93.3521532103444 -0.0122034644597683 -4.07135236875601 -0.0122034644597697 -4.071352368756 -37.2084961519115 -93.3521532103431 
29.8 -35.6360941849717 -94.4291514535322 -0.0141603677500134 -4.88220120777136 -0.0141603677500139 -4.88220120777127 -35.6360941849709 -94.4291514535324 
34.75 -34.30709113486 -95.4467241532223 -0.0161326721801267 -5.69295429884197 -0.0161326721801253 -5.69295429884199 -34.3070911348601 -95.4467241532221 
39.7 -33.1566211683703 -96.4239712404664 -0.0181300921669063 -6.5035990873959 -0.0181300921669068 -6.50359908739599 -33.1566211683709 -96.4239712404664 
44.65 -32.142776305251 -97.3723455623162 -0.0201591860002737 -7.31412318300395 -0.0201591860002727 -7.3141231830039 -32.1427763052507 -97.3723455623164 
49.6 -31.2369071714562 -98.2991847413139 -0.0222245376593053 -8.12451436727281 -0.0222245376593039 -8.12451436727273 -31.2369071714558 -98.2991847413141 
54.55 -30.4185599690719 -99.2094343564423 -0.0243294166817429 -8.93476059737731 -0.0243294166817453 -8.93476059737733 -30.418559969072 -99.2094343564422 
59.5 -29.672620923113 -100.106564113549 -0.0264761730666426 -9.74485000894848 -0.0264761730666431 -9.74485000894845 -29.6726209231129 -100.106564113549 
64.45 -28.9876053455982 -100.993088713134 -0.028666486842303 -10.5547709194245 -0.0286664868423026 -10.5547709194245 -28.9876053455981 -100.993088713134 
69.4 -28.3545813866813 -101.870880364197 -0.0309015329051466 -11.3645118321207 -0.0309015329051461 -11.3645118321206 -28.3545813866812 -101.870880364197 
74.35 -27.7664653554363 -102.741364780834 -0.0331820939610335 -12.1740614409795 -0.0331820939610335 -12.1740614409794 -27.7664653554362 -102.741364780834 
79.3 -27.2175445663868 -103.605648751212 -0.0355086403529654 -12.9834086358885 -0.0355086403529669 -12.9834086358885 -27.2175445663868 -103.605648751212 
84.25 -26.7031448794166 -104.464605831702 -0.0378813880213326 -13.7925425084289 -0.0378813880213326 -13.7925425084289 -26.7031448794166 -104.464605831702 
89.2 -26.2193932784091 -105.318935498628 -0.0403003415936242 -14.6014523579403 -0.0403003415936262 -14.6014523579403 -26.219393278409 -105.318935498628 
94.15 -25.7630446428939 -106.169204957188 -0.0427653271025598 -15.4101276978013 -0.0427653271025603 -15.4101276978013 -25.7630446428939 -106.169204957188 
99.1 -25.3313529497556 -107.0158793139 -0.0452760173092399 -16.2185582618367 -0.0452760173092374 -16.2185582618367 -25.3313529497556 -107.0158793139 
104.05 -24.921973895287 -107.859343756666 -0.0478319516505557 -17.026734010786 -0.0478319516505557 -17.026734010786 -24.921973895287 -107.859343756666 
109 -24.5328901661378 -108.699920130195 -0.050432552211291 -17.8346451387759 -0.0504325522112906 -17.8346451387759 -24.5328901661379 -108.699920130195 
113.95 -24.162353317911 -109.537879507534 -0.0530771367112909 -18.6422820797474 -0.05307713671129 -18.6422820797474 -24.162353317911 -109.537879507535 
118.9 -23.808838020379 -110.373451853045 -0.0557649292206402 -19.449635513802 -0.0557649292206373 -19.449635513802 -23.8088380203789 -110.373451853046 
123.85 -23.471005640387 -111.206833540374 -0.058495069124139 -20.2566963734314 -0.058495069124139 -20.2566963734314 -23.471005640387 -111.206833540374 
128.8 -23.1476749651803 -112.038193266589 -0.0612666187216871 -21.0634558496074 -0.0612666187216861 -21.0634558496074 -23.1476749651803 -112.038193266589 
133.75 -22.8377984494131 -112.867676752006 -0.0640785697550551 -21.8699053977062 -0.0640785697550561 -21.8699053977063 -22.8377984494131 -112.867676752006 
138.7 -22.540442780679 -113.695410509947 -0.0669298490819007 -22.67603674325 -0.0669298490819007 -22.67603674325 -22.540442780679 -113.695410509947 
143.65 -22.2547728544401 -114.521504896573 -0.0698193236665979 -23.4818418874486 -0.0698193236665974 -23.4818418874486 -22.2547728544401 -114.521504896573 
148.6 -21.9800384649659 -115.346056597954 -0.072745805019523 -24.2873131125269 -0.0727458050195245 -24.2873131125269 -21.9800384649659 -115.346056597954 
153.55 -21.7155631780336 -116.169150673229 -0.0757080531877971 -25.0924429868278 -0.0757080531877976 -25.0924429868278 -21.7155631780336 -116.169150673229 
158.5 -21.4607349698644 -116.99086224464 -0.0787047803786532 -25.8972243696791 -0.0787047803786517 -25.8972243696791 -21.4607349698644 -116.99086224464 
163.45 -21.2149983062673 -117.811257904435 -0.0817346542801004 -26.7016504160165 -0.0817346542801004 -26.7016504160165 -21.2149983062673 -117.811257904435 
168.4 -20.9778474040792 -118.630396893087 -0.0847963011304531 -27.5057145807553 -0.0847963011304541 -27.5057145807553 -20.9778474040792 -118.630396893087 
173.35 -20.7488204693228 -119.448332091541 -0.0878883085782895 -28.309410622904 -0.0878883085782895 -28.3094106229041 -20.7488204693229 -119.448332091541 
178.3 -20.5274947470298 -120.26511086122 -0.0910092283665135 -29.1127326094164 -0.091009228366516 -29.1127326094164 -20.5274947470298 -120.26511086122 
183.25 -20.3134822493352 -121.080775758662 -0.09415757886779 -29.915674918775 -0.094157578867789 -29.9156749187751 -20.3134822493352 -121.080775758662 
188.2 -20.1064260533389 -121.895365146309 -0.0973318474936915 -30.7182322443065 -0.097331847493691 -30.7182322443065 -20.1064260533389 -121.895365146309 
193.15 -19.9059970799634 -122.70891371681 -0.100530492995826 -31.5203995972211 -0.100530492995826 -31.5203995972211 -19.9059970799634 -122.70891371681 
198.1 -19.7118912807577 -123.521452944927 -0.103751947673968 -32.3221723093803 -0.103751947673967 -32.3221723093803 -19.7118912807577 -123.521452944927 
203.05 -19.5238271722312 -124.333011478538 -0.106994619503538 -33.123546035785 -0.106994619503537 -33.123546035785 -19.5238271722312 -124.333011478538 
208 -19.3415436674822 -125.143615478171 -0.110256894192661 -33.9245167567886 -0.110256894192661 -33.9245167567885 -19.3415436674822 -125.143615478171 
212.95 -19.1647981631628 -125.953288912839 -0.113537137177249 -34.7250807800313 -0.11353713717725 -34.7250807800313 -19.1647981631628 -125.953288912839 
217.9 -18.9933648465731 -126.762053818631 -0.116833695561055 -35.5252347420971 -0.116833695561054 -35.525234742097 -18.9933648465731 -126.762053818631 
222.85 -18.8270331932112 -127.569930525423 -0.120144900006487 -36.3249756098948 -0.120144900006487 -36.3249756098948 -18.8270331932112 -127.569930525423 
227.8 -18.6656066296752 -128.376937856189 -0.123469066580966 -37.1243006817625 -0.123469066580967 -37.1243006817625 -18.6656066296752 -128.376937856188 
232.75 -18.5089013405867 -129.183093302683 -0.126804498562749 -37.923207588298 -0.12680449856275 -37.923207588298 -18.5089013405867 -129.183093302683 
237.7 -18.3567452013521 -129.988413180685 -0.130149488209439 -38.721694292917 -0.130149488209439 -38.721694292917 -18.3567452013521 -129.988413180685 
242.65 -18.2089768211998 -130.792912767462 -0.133502318491897 -39.5197590921411 -0.133502318491898 -39.5197590921411 -18.2089768211998 -130.792912767462 
247.6 -18.0654446831326 -131.596606423777 -0.136861264795676 -40.3174006156183 -0.136861264795677 -40.3174006156183 -18.0654446831326 -131.596606423777 
252.55 -17.9260063692858 -132.399507702348 -0.140224596591783 -41.1146178258778 -0.140224596591781 -41.1146178258778 -17.9260063692858 -132.399507702348 
257.5 -17.7905278617466 -133.201629444455 -0.143590579078148 -41.9114100178243 -0.14359057907815 -41.9114100178243 -17.7905278617466 -133.201629444455 
262.45 -17.6588829102155 -134.00298386611 -0.146957474793004 -42.7077768179722 -0.146957474793004 -42.7077768179722 -17.6588829102155 -134.00298386611 
267.4 -17.5309524590173 -134.803582635022 -0.150323545200974 -43.5037181834271 -0.150323545200974 -43.5037181834271 -17.5309524590173 -134.803582635022 
272.35 -17.406624126933 -135.603436939421 -0.153687052252658 -44.2992344006143 -0.153687052252657 -44.2992344006143 -17.406624126933 -135.603436939421 
277.3 -17.2857917341478 -136.402557549667 -0.15704625991815 -45.0943260837613 -0.157046259918149 -45.0943260837613 -17.2857917341478 -136.402557549667 
282.25 -17.1683548713129 -137.200954873436 -0.160399435694931 -45.8889941731379 -0.160399435694931 -45.8889941731379 -17.1683548713129 -137.200954873436 
287.2 -17.054218506335 -137.99863900518 -0.163744852090357 -46.6832399330567 -0.163744852090356 -46.6832399330567 -17.054218506335 -137.99863900518 
292.15 -16.9432926250248 -138.795619770475 -0.167080788078895 -47.4770649496416 -0.167080788078897 -47.4770649496416 -16.9432926250248 -138.795619770475 
297.1 -16.8354919021965 -139.591906765788 -0.170405530534255 -48.2704711283651 -0.170405530534256 -48.2704711283651 -16.8354919021965 -139.591906765788 
302.05 -16.7307354002022 -140.387509394121 -0.173717375636315 -49.0634606913635 -0.173717375636317 -49.0634606913634 -16.7307354002022 -140.387509394121 
307 -16.6289462922287 -141.182436896954 -0.177014630252932 -49.8560361745308 -0.177014630252932 -49.8560361745308 -16.6289462922287 -141.182436896954 
311.95 -16.5300516079843 -141.976698382854 -0.18029561329644 -50.6482004243999 -0.18029561329644 -50.6482004243999 -16.5300516079843 -141.976698382854 
316.9 -16.4339819996646 -142.770302853044 -0.183558657054796 -51.4399565948137 -0.183558657054797 -51.4399565948137 -16.4339819996646 -142.770302853044 
321.85 -16.3406715263156 -143.563259224253 -0.186802108497202 -52.2313081433924 -0.186802108497202 -52.2313081433924 -16.3406715263156 -143.563259224254 
326.8 -16.2500574549134 -144.355576349072 -0.190024330554016 -53.0222588278025 -0.190024330554016 -53.0222588278025 -16.2500574549134 -144.355576349072 
331.75 -16.1620800766575 -145.147263034042 -0.19322370337086 -53.8128127018319 -0.193223703370861 -53.8128127018319 -16.1620800766575 -145.147263034042 
336.7 -16.0766825371309 -145.938328055693 -0.19639862553662 -54.6029741112771 -0.196398625536622 -54.6029741112771 -16.0766825371309 -145.938328055693 
341.65 -15.9938106791167 -146.72878017469 -0.199547515285271 -55.3927476896482 -0.199547515285273 -55.3927476896482 -15.9938106791167 -146.72878017469 
346.6 -15.9134128969854 -147.51862814826 -0.202668811671246 -56.1821383536958 -0.202668811671247 -56.1821383536957 -15.9134128969854 -147.51862814826 
351.55 -15.835440001673 -148.307880741032 -0.205760975718225 -56.9711512987666 -0.205760975718226 -56.9711512987666 -15.835440001673 -148.307880741032 
356.5 -15.7598450953675 -149.096546734436 -0.208822491541121 -57.7597919939925 -0.208822491541121 -57.7597919939925 -15.7598450953675 -149.096546734436 
361.45 -15.6865834551068 -149.884634934751 -0.211851867441108 -58.5480661773184 -0.211851867441109 -58.5480661773184 -15.6865834551068 -149.884634934751 
366.4 -15.6156124245669 -150.672154179933 -0.214847636973517 -59.3359798503741 -0.214847636973516 -59.3359798503741 -15.6156124245669 -150.672154179933 
371.35 -15.5468913133876 -151.459113345294 -0.217808359988439 -60.1235392731966 -0.217808359988439 -60.1235392731966 -15.5468913133876 -151.459113345294 
376.3 -15.4803813034436 -152.245521348136 -0.220732623643896 -60.9107509588061 -0.220732623643895 -60.9107509588061 -15.4803813034436 -152.245521348136 
381.25 -15.4160453615246 -153.031387151404 -0.223619043391423 -61.6976216676438 -0.223619043391423 -61.6976216676437 -15.4160453615246 -153.031387151404 
386.2 -15.3538481579347 -153.816719766427 -0.226466263933961 -62.4841584018729 -0.226466263933961 -62.4841584018729 -15.3538481579347 -153.816719766427 
391.15 -15.293755990568 -154.601528254823 -0.229272960155917 -63.2703683995527 -0.229272960155917 -63.2703683995527 -15.293755990568 -154.601528254823 
396.1 -15.2357367140548 -155.385821729614 -0.232037838025326 -64.0562591286866 -0.232037838025327 -64.0562591286866 -15.2357367140548 -155.385821729614 
401.05 -15.1797596736095 -156.1696093556 -0.234759635467985 -64.8418382811512 -0.234759635467984 -64.8418382811512 -15.1797596736095 -156.1696093556 
406 -15.1257956432444 -156.952900349054 -0.237437123213507 -65.6271137665116 -0.237437123213508 -65.6271137665116 -15.1257956432444 -156.952900349054 
410.95 -15.0738167680392 -157.735703976767 -0.240069105613235 -66.4120937057271 -0.240069105613236 -66.4120937057271 -15.0738167680392 -157.735703976767 
415.9 -15.023796510188 -158.518029554489 -0.242654421429912 -67.1967864247521 -0.242654421429912 -67.1967864247521 -15.023796510188 -158.518029554489 
420.85 -14.9757095985639 -159.2998864448 -0.245191944599137 -67.9812004480375 -0.245191944599136 -67.9812004480375 -14.9757095985639 -159.2998864448 
425.8 -14.9295319815663 -160.081284054444 -0.247680584962515 -68.7653444919373 -0.247680584962515 -68.7653444919373 -14.9295319815663 -160.081284054444 
430.75 -14.885240783035 -160.862231831152 -0.2501192889725 -69.5492274580243 -0.2501192889725 -69.5492274580243 -14.885240783035 -160.862231831152 
435.7 -14.8428142610333 -161.642739259993 -0.252507040368919 -70.33285842632 -0.252507040368921 -70.33285842632 -14.8428142610333 -161.642739259993 
440.65 -14.8022317693169 -162.422815859256 -0.254842860827166 -71.1162466484435 -0.254842860827167 -71.1162466484435 -14.8022317693169 -162.422815859256 
445.6 -14.763473721324 -163.202471175906 -0.257125810578063 -71.8994015406822 -0.257125810578064 -71.8994015406822 -14.763473721324 -163.202471175906 
450.55 -14.7265215565319 -163.981714780625 -0.259354988999427 -72.6823326769915 -0.259354988999427 -72.6823326769915 -14.7265215565318 -163.981714780625 
455.5 -14.6913577090399 -164.760556262454 -0.26152953517933 -73.4650497819243 -0.261529535179332 -73.4650497819243 -14.6913577090399 -164.760556262454 
460.45 -14.6579655782507 -165.539005223056 -0.263648628451084 -74.2475627234963 -0.263648628451083 -74.2475627234963 -14.6579655782507 -165.539005223056 
465.4 -14.6263295015288 -166.317071270615 -0.26571148889999 -75.0298815059924 -0.265711488899991 -75.0298815059923 -14.6263295015288 -166.317071270615 
470.35 -14.5964347287312 -167.094764013383 -0.267717377841905 -75.8120162627142 -0.267717377841904 -75.8120162627142 -14.5964347287312 -167.094764013383 
475.3 -14.5682673985067 -167.872093052879 -0.269665598273597 -76.5939772486778 -0.269665598273598 -76.5939772486778 -14.5682673985067 -167.872093052879 
480.25 -14.5418145162751 -168.649067976771 -0.271555495295034 -77.3757748332601 -0.271555495295034 -77.3757748332601 -14.5418145162751 -168.649067976771 
485.2 -14.5170639338003 -169.425698351423 -0.273386456503556 -78.1574194928027 -0.273386456503556 -78.1574194928027 -14.5170639338003 -169.425698351423 
490.15 -14.4940043302824 -170.201993714131 -0.275157912360055 -78.938921803173 -0.275157912360054 -78.938921803173 -14.4940043302824 -170.201993714131 
495.1 -14.4726251948969 -170.977963565057 -0.276869336527161 -79.7202924322879 -0.276869336527159 -79.7202924322879 -14.4726251948969 -170.977963565057 
500.05 -14.4529168107183 -171.753617358848 -0.278520246179536 -80.5015421326042 -0.278520246179536 -80.5015421326042 -14.4529168107183 -171.753617358848 
505 -14.434870239969 -172.528964495967 -0.280110202286278 -81.282681733578 -0.280110202286278 -81.282681733578 -14.434870239969 -172.528964495967 
509.95 -14.4184773105406 -173.304014313713 -0.281638809865546 -82.0637221340968 -0.281638809865549 -82.0637221340968 -14.4184773105406 -173.304014313713 
514.9 -14.4037306037406 -174.078776076963 -0.283105718211416 -82.8446742948881 -0.283105718211414 -82.8446742948881 -14.4037306037406 -174.078776076963 
519.85 -14.3906234432204 -174.8532589686 -0.284510621093033 -83.6255492309081 -0.284510621093033 -83.6255492309081 -14.3906234432204 -174.8532589686 
524.8 -14.3791498850464 -175.627472079654 -0.285853256926168 -84.4063580037129 -0.285853256926168 -84.4063580037129 -14.3791498850464 -175.627472079654 
529.75 -14.3693047088805 -176.401424399148 -0.287133408917141 -85.1871117138161 -0.287133408917141 -85.1871117138161 -14.3693047088805 -176.401424399148 
534.7 -14.3610834102386 -177.175124803632 -0.288350905179227 -85.9678214930358 -0.288350905179228 -85.9678214930358 -14.3610834102386 -177.175124803632 
539.65 -14.3544821938015 -177.94858204642 -0.289505618821614 -86.7484984968348 -0.289505618821611 -86.7484984968348 -14.3544821938015 -177.94858204642 
544.6 -14.3494979677562 -178.721804746509 -0.290597468010866 -87.529153896656 -0.290597468010867 -87.529153896656 -14.3494979677562 -178.721804746509 
549.55 -14.3461283391469 -179.494801377184 -0.291626416005093 -88.3097988722576 -0.291626416005093 -88.3097988722576 -14.3461283391469 -179.494801377184 
554.5 -14.3443716102222 179.732419745705 -0.292592471160709 -89.0904446040496 -0.292592471160709 -89.0904446040496 -14.3443716102222 179.732419745705 
559.45 -14.3442267757648 178.959850475806 -0.293495686911951 -89.8711022654366 -0.293495686911951 -89.8711022654366 -14.3442267757648 178.959850475806 
564.4 -14.3456935213963 178.187482848665 -0.294336161723159 -90.6517830151685 -0.294336161723157 -90.6517830151685 -14.3456935213963 178.187482848665 
569.35 -14.348772222851 177.415309094502 -0.295114039013817 -91.4324979897032 -0.295114039013818 -91.4324979897032 -14.348772222851 177.415309094502 
574.3 -14.353463946216 176.64332165134 -0.29582950705649 -92.2132582955834 -0.29582950705649 -92.2132582955834 -14.353463946216 176.64332165134 
579.25 -14.3597704491406 175.871513178542 -0.296482798847603 -92.9940750018317 -0.296482798847603 -92.9940750018317 -14.3597704491406 175.871513178542 
584.2 -14.3676941830169 175.09987657074 -0.297074191951158 -93.7749591323673 -0.297074191951157 -93.7749591323673 -14.3676941830169 175.09987657074 
589.15 -14.3772382961414 174.328404972199 -0.29760400831541 -94.5559216584457 -0.29760400831541 -94.5559216584457 -14.3772382961414 174.328404972199 
594.1 -14.3884066378671 173.557091791624 -0.298072614062541 -95.3369734911267 -0.298072614062543 -95.3369734911267 -14.3884066378671 173.557091791624 
599.05 -14.4012037637616 172.785930717436 -0.29848041925136 -96.1181254737725 -0.298480419251358 -96.1181254737725 -14.4012037637616 172.785930717436 
604 -14.4156349417878 172.014915733549 -0.298827877613077 -96.8993883745799 -0.298827877613077 -96.8993883745799 -14.4156349417878 172.014915733549 
608.95 -14.4317061595299 171.244041135662 -0.299115486260193 -97.68077287915 -0.299115486260194 -97.68077287915 -14.4317061595299 171.244041135662 
613.9 -14.4494241324888 170.473301548121 -0.299343785368524 -98.4622895830973 -0.299343785368524 -98.4622895830973 -14.4494241324888 170.473301548121 
618.85 -14.4687963134766 169.702691941351 -0.299513357832417 -99.2439489847036 -0.299513357832418 -99.2439489847036 -14.4687963134766 169.702691941351 
623.8 -14.4898309031425 168.932207649933 -0.299624828893211 -100.025761477619 -0.299624828893212 -100.025761477619 -14.4898309031424 168.932207649933 
628.75 -14.5125368616672 168.161844391332 -0.299678865740947 -100.807737343612 -0.299678865740945 -100.807737343612 -14.5125368616672 168.161844391332 
633.7 -14.5369239216688 167.391598285344 -0.299676177089413 -101.589886745376 -0.299676177089413 -101.589886745376 -14.5369239216688 167.391598285344 
638.65 -14.5630026023643 166.621465874299 -0.299617512724576 -102.372219719395 -0.299617512724577 -102.372219719395 -14.5630026023643 166.621465874299 
643.6 -14.5907842250389 165.851444144075 -0.299503663026434 -103.154746168862 -0.299503663026436 -103.154746168862 -14.5907842250389 165.851444144075 
648.55 -14.6202809298807 165.081530545981 -0.299335458464365 -103.937475856676 -0.299335458464363 -103.937475856676 -14.6202809298807 165.081530545981 
653.5 -14.6515056942399 164.311723019573 -0.299113769066034 -104.720418398494 -0.299113769066034 -104.720418398494 -14.65150569424 164.311723019573 
658.45 -14.6844723523844 163.542020016463 -0.29883950385998 -105.503583255865 -0.298839503859979 -105.503583255865 -14.6844723523844 163.542020016463 
663.4 -14.7191956168223 162.772420525216 -0.298513610291871 -106.286979729439 -0.298513610291871 -106.286979729439 -14.7191956168223 162.772420525216 
668.35 -14.7556911012758 162.002924097386 -0.298137073614626 -107.07061695225 -0.298137073614628 -107.07061695225 -14.7556911012758 162.002924097386 
673.3 -14.7939753453937 161.233530874816 -0.297710916252436 -107.854503883091 -0.297710916252438 -107.854503883091 -14.7939753453937 161.233530874816 
678.25 -14.8340658413002 160.464241618267 -0.297236197138822 -108.638649299975 -0.297236197138823 -108.638649299975 -14.8340658413002 160.464241618267 
683.2 -14.8759810620841 159.695057737507 -0.296714011028858 -109.423061793686 -0.296714011028861 -109.423061793686 -14.8759810620841 159.695057737507 
688.15 -14.9197404923457 158.925981322967 -0.296145487785699 -110.207749761428 -0.296145487785702 -110.207749761428 -14.9197404923457 158.925981322967 
693.1 -14.9653646609241 158.157015179091 -0.295531791641547 -110.992721400578 -0.295531791641547 -110.992721400578 -14.9653646609241 158.157015179091 
698.05 -15.0128751759433 157.388162859529 -0.294874120433234 -111.777984702541 -0.294874120433235 -111.777984702541 -15.0128751759433 157.388162859529 
703 -15.0622947623239 156.619428704323 -0.294173704812623 -112.563547446712 -0.294173704812624 -112.563547446712 -15.0622947623239 156.619428704323 
707.95 -15.1136473019229 155.850817879251 -0.293431807431971 -113.349417194563 -0.293431807431969 -113.349417194563 -15.1136473019229 155.850817879251 
712.9 -15.1669578764773 155.082336417535 -0.292649722104538 -114.135601283835 -0.292649722104539 -114.135601283835 -15.1669578764773 155.082336417535 
717.85 -15.2222528135435 154.313991264094 -0.291828772940617 -114.92210682286 -0.29182877294062 -114.92210682286 -15.2222528135435 154.313991264094 
722.8 -15.2795597356414 153.545790322593 -0.290970313459283 -115.708940685016 -0.290970313459284 -115.708940685016 -15.2795597356414 153.545790322593 
727.75 -15.3389076128313 152.777742505521 -0.290075725676096 -116.496109503301 -0.290075725676096 -116.496109503301 -15.3389076128313 152.777742505521 
732.7 -15.4003268189729 152.009857787587 -0.289146419167102 -117.28361966506 -0.289146419167103 -117.28361966506 -15.4003268189729 152.009857787587 
737.65 -15.4638491919378 151.242147262733 -0.288183830109402 -118.07147730684 -0.288183830109401 -118.07147730684 -15.4638491919378 151.242147262733 
742.6 -15.5295080980731 150.474623205106 -0.28718942029866 -118.859688309401 -0.287189420298662 -118.859688309401 -15.5295080980732 150.474623205106 
747.55 -15.5973385012411 149.707299134364 -0.286164676143917 -119.648258292877 -0.286164676143918 -119.648258292877 -15.5973385012411 149.707299134364 
752.5 -15.6673770367909 148.940189885728 -0.285111107640096 -120.437192612088 -0.285111107640099 -120.437192612088 -15.667377036791 148.940189885728 
757.45 -15.7396620908532 148.173311685254 -0.284030247318608 -121.226496352023 -0.284030247318609 -121.226496352023 -15.7396620908532 148.173311685254 
762.4 -15.8142338853841 147.406682230818 -0.282923649176516 -122.016174323478 -0.282923649176516 -122.016174323478 -15.8142338853841 147.406682230818 
767.35 -15.8911345694303 146.640320779409 -0.281792887584748 -122.806231058876 -0.281792887584749 -122.806231058876 -15.8911345694304 146.640320779409 
772.3 -15.9704083171318 145.87424824135 -0.280639556175819 -123.596670808256 -0.280639556175818 -123.596670808256 -15.9704083171318 145.87424824135 
777.25 -16.0521014330293 145.108487282168 -0.279465266711627 -124.387497535445 -0.279465266711626 -124.387497535445 -16.0521014330293 145.108487282168 
782.2 -16.1362624653065 144.343062432907 -0.278271647931881 -125.178714914415 -0.278271647931882 -125.178714914415 -16.1362624653065 144.343062432907 
787.15 -16.222942327655 143.578000209766 -0.27706034438374 -125.970326325833 -0.277060344383738 -125.970326325833 -16.222942327655 143.578000209766 
792.1 -16.3121944305298 142.813329244081 -0.275833015233291 -126.762334853805 -0.275833015233291 -126.762334853805 -16.3121944305298 142.813329244081 
797.05 -16.4040748226376 142.049080423747 -0.274591333059548 -127.554743282818 -0.274591333059546 -127.554743282818 -16.4040748226376 142.049080423747 
802 -16.498642343596 141.285287047357 -0.273336982631612 -128.347554094891 -0.273336982631612 -128.347554094891 -16.498642343596 141.285287047357 
806.95 -16.5959587888031 140.521984992484 -0.272071659669748 -129.140769466934 -0.272071659669749 -129.140769466934 -16.5959587888031 140.521984992484 
811.9 -16.6960890876695 139.759212899691 -0.270797069591126 -129.934391268318 -0.270797069591126 -129.934391268318 -16.6960890876695 139.759212899691 
816.85 -16.799101496501 138.997012374101 -0.26951492624101 -130.728421058669 -0.26951492624101 -130.728421058669 -16.799101496501 138.997012374102 
821.8 -16.9050678074602 138.235428206577 -0.268226950610201 -131.522860085881 -0.268226950610203 -131.522860085881 -16.9050678074602 138.235428206577 
826.75 -17.0140635752078 137.474508616833 -0.266934869539622 -132.317709284356 -0.266934869539623 -132.317709284356 -17.0140635752078 137.474508616833 
831.7 -17.1261683630117 136.714305521156 -0.265640414412877 -133.112969273479 -0.265640414412877 -133.112969273479 -17.1261683630117 136.714305521156 
836.65 -17.2414660103246 135.954874827726 -0.26434531983776 -133.908640356325 -0.264345319837759 -133.908640356325 -17.2414660103246 135.954874827726 
841.6 -17.360044924082 135.196276763016 -0.263051322317629 -134.704722518609 -0.26305132231763 -134.704722518609 -17.360044924082 135.196276763016 
846.55 -17.4819983962447 134.438576233211 -0.26176015891365 -135.501215427869 -0.261760158913652 -135.501215427869 -17.4819983962447 134.43857623321 
851.5 -17.6074249504385 133.68184322518 -0.260473565898882 -136.298118432912 -0.260473565898882 -136.298118432912 -17.6074249504385 133.68184322518 
856.45 -17.7364287209052 132.926153252216 -0.259193277405336 -137.095430563494 -0.259193277405336 -137.095430563494 -17.7364287209052 132.926153252216 
861.4 -17.8691198674046 132.171587850549 -0.257921024065004 -137.893150530265 -0.257921024065007 -137.893150530265 -17.8691198674046 132.171587850549 
866.35 -18.0056150301953 131.418235133582 -0.256658531645989 -138.691276724958 -0.256658531645989 -138.691276724958 -18.0056150301953 131.418235133582 
871.3 -18.1460378297835 130.666190411893 -0.255407519684915 -139.48980722085 -0.255407519684915 -139.48980722085 -18.1460378297835 130.666190411893 
876.25 -18.2905194167825 129.915556888351 -0.254169700116723 -140.288739773477 -0.254169700116724 -140.288739773477 -18.2905194167825 129.915556888351 
881.2 -18.4391990779857 129.166446439248 -0.252946775903087 -141.088071821607 -0.252946775903087 -141.088071821607 -18.4391990779856 129.166446439248 
886.15 -18.5922249056368 128.418980494161 -0.251740439660652 -141.887800488496 -0.251740439660652 -141.887800488496 -18.5922249056369 128.418980494161 
891.1 -18.7497545379168 127.67329102949 -0.250552372290329 -142.687922583389 -0.250552372290328 -142.687922583389 -18.7497545379168 127.67329102949 
896.05 -18.9119559798753 126.92952169321 -0.249384241608965 -143.488434603311 -0.249384241608967 -143.488434603311 -18.9119559798753 126.92952169321 
901 -19.0790085154625 126.187829081545 -0.248237700984589 -144.289332735112 -0.248237700984589 -144.289332735112 -19.0790085154625 126.187829081545 
905.95 -19.2511037229921 125.448384192098 -0.24711438797663 -145.090612857794 -0.247114387976631 -145.090612857794 -19.2511037229921 125.448384192098 
910.9 -19.4284466083602 124.71137408257 -0.246015922982385 -145.892270545103 -0.246015922982384 -145.892270545103 -19.4284466083602 124.71137408257 
915.85 -19.6112568727083 123.977003769825 -0.244943907891093 -146.694301068395 -0.244943907891092 -146.694301068395 -19.6112568727083 123.977003769825 
920.8 -19.7997703340339 123.245498410951 -0.243899924746991 -147.496699399776 -0.243899924746992 -147.496699399776 -19.7997703340339 123.245498410951 
925.75 -19.9942405256343 122.517105816366 -0.242885534422696 -148.299460215511 -0.242885534422696 -148.299460215511 -19.9942405256343 122.517105816366 
930.7 -20.1949404983225 121.792099355439 -0.241902275304322 -149.102577899708 -0.241902275304321 -149.102577899708 -20.1949404983225 121.792099355439 
935.65 -20.402164858257 121.070781328013 -0.240951661989703 -149.906046548261 -0.240951661989703 -149.906046548261 -20.4021648582571 121.070781328013 
940.6 -20.6162320781691 120.353486891252 -0.240035184001151 -150.709859973081 -0.24003518400115 -150.709859973081 -20.6162320781691 120.353486891253 
945.55 -20.8374871270093 119.640588651421 -0.239154304514105 -151.514011706571 -0.239154304514105 -151.514011706571 -20.8374871270093 119.640588651421 
950.5 -21.0663044719023 118.932502055566 -0.238310459103143 -152.318495006387 -0.238310459103144 -152.318495006387 -21.0663044719023 118.932502055566 
955.45 -21.3030915172053 118.229691750291 -0.237505054506678 -153.123302860443 -0.237505054506677 -153.123302860443 -21.3030915172054 118.229691750291 
960.4 -21.5482925589627 117.532679115908 -0.236739467411805 -153.928427992192 -0.236739467411806 -153.928427992192 -21.5482925589627 117.532679115908 
965.35 -21.8023933498396 116.842051237033 -0.236015043260686 -154.733862866148 -0.236015043260687 -154.733862866148 -21.8023933498395 116.842051237033 
970.3 -22.0659263906436 116.15847163907 -0.235333095079813 -155.539599693673 -0.235333095079813 -155.539599693673 -22.0659263906436 116.15847163907 
975.25 -22.3394770910049 115.482693209102 -0.234694902333572 -156.345630439006 -0.234694902333574 -156.345630439006 -22.3394770910049 115.482693209102 