! AWR Design Environment (17415) Wed Nov  6 14:17:59 2024
! Document = 'Inductor'
! nPorts: 2, nXvals: 201

# MHz S DB R 50
!Freq DBS11 AngS11 DBS21 AngS21 DBS12 AngS12 DBS22 AngS22 
10 -76.2886062036429 89.9912160000917 -1.02076011475739e-07 -0.00878399993572766 -1.02076012440066e-07 -0.00878399992663368 -76.2886062126353 89.9912160000588 
14.95 -72.7957824778193 89.9868679201831 -2.28142436519851e-07 -0.0131320797748533 -2.2814243507336e-07 -0.0131320797652461 -72.7957824841738 89.9868679202041 
19.9 -70.3115449816945 89.982519840545 -4.04231201164685e-07 -0.0174801594584789 -4.04231202129013e-07 -0.017480159456846 -70.3115449825059 89.9825198405479 
24.85 -68.3820788760568 89.9781717610603 -6.30342304744556e-07 -0.0218282389413279 -6.30342304262392e-07 -0.0218282389465472 -68.38207887398 89.9781717610648 
29.8 -66.8042817312356 89.9738236818204 -9.06475736268164e-07 -0.0261763181781249 -9.06475734821673e-07 -0.026176318179462 -66.8042817307919 89.973823681828 
34.75 -65.4695111606216 89.9694756029034 -1.23263148550836e-06 -0.0305243971105684 -1.23263148599052e-06 -0.0305243971137291 -65.4695111597222 89.9694756028881 
39.7 -64.3127975797439 89.9651275242965 -1.60880954300214e-06 -0.0348724756901292 -1.60880954251998e-06 -0.0348724756944581 -64.3127975786656 89.9651275243113 
44.65 -63.292178876413 89.9607794461234 -2.03500989571119e-06 -0.0392205538747938 -2.03500989571119e-06 -0.0392205538732701 -63.2921788767504 89.9607794461271 
49.6 -62.3789750873696 89.956431368404 -2.51123252702183e-06 -0.0435686316030096 -2.51123252895049e-06 -0.0435686316017844 -62.3789750876138 89.9564313683942 
54.55 -61.552714044949 89.9520832911806 -3.03747742397754e-06 -0.0479167088262543 -3.03747742445971e-06 -0.0479167088283606 -61.5527140445672 89.9520832911766 
59.5 -60.7982704054104 89.9477352144858 -3.6137445652248e-06 -0.0522647855025219 -3.61374456377831e-06 -0.0522647855046128 -60.7982704050629 89.9477352144965 
64.45 -60.1041519122208 89.9433871384174 -4.24003393113856e-06 -0.0566128615767821 -4.24003393065639e-06 -0.056612861575638 -60.1041519123964 89.9433871384235 
69.4 -59.4614216132428 89.9390390630114 -4.91634550044706e-06 -0.0609609369972649 -4.91634550237572e-06 -0.0609609369963009 -59.4614216133802 89.9390390630019 
74.35 -58.8629922915488 89.9346909882842 -5.6426792511962e-06 -0.0653090117170892 -5.64267925167837e-06 -0.0653090117149484 -58.8629922918335 89.9346909882763 
79.3 -58.303148778766 89.9303429143188 -6.41903515737434e-06 -0.069657085682864 -6.41903515785651e-06 -0.0696570856815525 -58.3031487789295 89.9303429143159 
84.25 -57.7772151607039 89.9259948411594 -7.24541319084097e-06 -0.0740051588460879 -7.24541319276963e-06 -0.0740051588460808 -57.7772151607048 89.925994841149 
89.2 -57.2813171403669 89.9216467688417 -8.12181332566618e-06 -0.0783532311566356 -8.12181332663051e-06 -0.0783532311568681 -57.2813171403411 89.9216467688436 
94.15 -56.812208667218 89.917298697431 -9.04823553138036e-06 -0.082701302566015 -9.0482355294517e-06 -0.0827013025655015 -56.8122086672719 89.9172986974354 
99.1 -56.3671430410101 89.9129506269778 -1.00246797710455e-05 -0.087049373022482 -1.00246797720098e-05 -0.0870493730219348 -56.3671430410647 89.9129506269787 
104.05 -55.9437754662652 89.9086025575197 -1.10511460190954e-05 -0.0913974424759265 -1.10511460171667e-05 -0.0913974424761165 -55.9437754662472 89.9086025575256 
109 -55.5400882748163 89.9042544891252 -1.2127634233852e-05 -0.095745510876244 -1.21276342319233e-05 -0.0957455108763612 -55.5400882748057 89.9042544891248 
113.95 -55.1543327699186 89.8999064218217 -1.32541443748836e-05 -0.100093578176593 -1.32541443748836e-05 -0.100093578175863 -55.1543327699819 89.8999064218229 
118.9 -54.7849834444044 89.8955583556829 -1.44306764155409e-05 -0.104441644320366 -1.44306764145766e-05 -0.104441644321296 -54.784983444327 89.89555835568 
123.85 -54.4307015448002 89.8912102907395 -1.56572303010091e-05 -0.108789709263992 -1.56572303034199e-05 -0.108789709262586 -54.4307015449124 89.8912102907339 
128.8 -54.0903057794087 89.8868622270421 -1.69338060018274e-05 -0.113137772952506 -1.69338059998987e-05 -0.113137772952908 -54.0903057793778 89.8868622270482 
133.75 -53.7627485525948 89.8825141646608 -1.82604034637446e-05 -0.117485835339092 -1.82604034637446e-05 -0.117485835338916 -53.7627485526078 89.8825141646608 
138.7 -53.4470965216231 89.878166103628 -1.9637022646774e-05 -0.121833896372057 -1.96370226477383e-05 -0.121833896372144 -53.447096521617 89.8781661036284 
143.65 -53.1425145631506 89.8738180439935 -2.10636635034962e-05 -0.126181956002158 -2.10636635010853e-05 -0.126181956001673 -53.142514563184 89.8738180439974 
148.6 -52.8482524578872 89.8694699858216 -2.25403259800232e-05 -0.130530014177717 -2.25403259790589e-05 -0.130530014178209 -52.8482524578545 89.869469985825 
153.55 -52.5636337575074 89.8651219291498 -2.40670100266064e-05 -0.134878070851134 -2.40670100266064e-05 -0.134878070851632 -52.5636337574753 89.8651219291481 
158.5 -52.2880464187112 89.8607738740308 -2.56437155937788e-05 -0.139226125971564 -2.56437155937788e-05 -0.139226125971002 -52.2880464187462 89.8607738740277 
163.45 -52.0209348781919 89.8564258205062 -2.72704426236762e-05 -0.143574179486538 -2.72704426222297e-05 -0.143574179486997 -52.0209348781641 89.8564258205125 
168.4 -51.7617933099628 89.8520777686517 -2.89471910640202e-05 -0.147922231348484 -2.89471910640202e-05 -0.147922231348659 -51.7617933099525 89.8520777686539 
173.35 -51.5101598601776 89.84772971849 -3.06739608522065e-05 -0.152270281507395 -3.06739608522065e-05 -0.152270281507464 -51.5101598601737 89.8477297184932 
178.3 -51.2656116933298 89.843381670087 -3.24507519326628e-05 -0.156618329912462 -3.24507519316984e-05 -0.156618329912435 -51.2656116933313 89.8433816700883 
183.25 -51.027760717356 89.8390336234858 -3.42775642394908e-05 -0.160966376512883 -3.42775642409373e-05 -0.160966376512587 -51.027760717372 89.8390336234865 
188.2 -50.7962498786326 89.8346855787416 -3.6154397714789e-05 -0.16531442126031 -3.61543977152712e-05 -0.165314421259365 -50.7962498786823 89.8346855787389 
193.15 -50.570749937684 89.8303375358976 -3.80812522908117e-05 -0.169662464102333 -3.80812522903295e-05 -0.169662464101764 -50.5707499377132 89.8303375358964 
198.1 -50.3509566534143 89.825989495008 -4.00581279010595e-05 -0.174010504990626 -4.00581279000951e-05 -0.174010504990395 -50.3509566534258 89.8259894950102 
203.05 -50.1365883145815 89.8216414561234 -4.20850244754572e-05 -0.17835854387443 -4.20850244754572e-05 -0.178358543875047 -50.1365883145515 89.8216414561263 
208 -49.9273835687511 89.8172934192932 -4.41619419480689e-05 -0.182706580704626 -4.41619419471046e-05 -0.182706580704681 -49.9273835687485 89.8172934192947 
212.95 -49.723099506734 89.8129453845686 -4.62888802445611e-05 -0.187054615430476 -4.62888802440789e-05 -0.187054615429875 -49.723099506762 89.8129453845703 
217.9 -49.523509966976 89.8085973519975 -4.8465839290882e-05 -0.191402648001258 -4.8465839290882e-05 -0.191402648001198 -49.5235099669786 89.8085973519995 
222.85 -49.3284040304314 89.8042493216326 -5.0692819014708e-05 -0.195750678367072 -5.06928190142259e-05 -0.195750678367578 -49.3284040304089 89.8042493216336 
227.8 -49.1375846810186 89.7999012935217 -5.29698193353181e-05 -0.200098706479661 -5.29698193362825e-05 -0.200098706479558 -49.1375846810231 89.7999012935201 
232.75 -48.9508676098388 89.7955532677152 -5.52968401775768e-05 -0.20444673228671 -5.52968401785411e-05 -0.204446732286855 -48.9508676098326 89.7955532677132 
237.7 -48.768080145381 89.7912052442601 -5.76738814593975e-05 -0.208794755739173 -5.76738814574688e-05 -0.208794755739174 -48.7680801453809 89.7912052442606 
242.65 -48.5890602939931 89.7868572232139 -6.01009430956001e-05 -0.213142776786387 -6.0100943095118e-05 -0.213142776787022 -48.5890602939672 89.7868572232143 
247.6 -48.4136558771251 89.7825092046229 -6.257802500659e-05 -0.217490795379334 -6.25780250085187e-05 -0.217490795379263 -48.4136558771279 89.7825092046199 
252.55 -48.2417237542351 89.7781611885323 -6.51051271082323e-05 -0.221838811466565 -6.51051271058215e-05 -0.221838811467191 -48.2417237542106 89.7781611885341 
257.5 -48.0731291207633 89.7738131750009 -6.76822493070303e-05 -0.226186824999088 -6.76822493079946e-05 -0.226186824999236 -48.0731291207576 89.7738131750013 
262.45 -47.9077448733707 89.7694651640741 -7.03093915208586e-05 -0.230534835926706 -7.03093915208586e-05 -0.230534835926665 -47.9077448733722 89.7694651640734 
267.4 -47.745451034095 89.7651171558015 -7.29865536529261e-05 -0.234882844198826 -7.29865536529261e-05 -0.234882844198694 -47.7454510340999 89.7651171558013 
272.35 -47.5861342276094 89.7607691502339 -7.57137356134737e-05 -0.239230849766093 -7.57137356139558e-05 -0.23923084976534 -47.5861342276368 89.7607691502324 
277.3 -47.4296872054483 89.7564211474237 -7.84909373101304e-05 -0.243578852576725 -7.84909373096482e-05 -0.24357885257701 -47.4296872054381 89.7564211474249 
282.25 -47.2760084122862 89.7520731474191 -8.1318158643092e-05 -0.247926852583026 -8.13181586440564e-05 -0.247926852582877 -47.2760084122914 89.7520731474166 
287.2 -47.1250015900517 89.7477251502657 -8.41953995166933e-05 -0.252274849732837 -8.41953995166933e-05 -0.252274849732912 -47.1250015900491 89.7477251502674 
292.15 -46.9765754158007 89.7433771560213 -8.7122659832657e-05 -0.25662284397768 -8.71226598312105e-05 -0.256622843977886 -46.9765754157937 89.7433771560218 
297.1 -46.8306431699339 89.739029164734 -9.00999394876838e-05 -0.260970835266649 -9.00999394862372e-05 -0.260970835266922 -46.8306431699248 89.7390291647349 
302.05 -46.6871224319896 89.734681176451 -9.31272383787552e-05 -0.265318823550078 -9.31272383787552e-05 -0.265318823549946 -46.6871224319939 89.7346811764499 
307 -46.5459348010721 89.7303331912215 -9.620455640217e-05 -0.269666808777908 -9.62045564026522e-05 -0.26966680877727 -46.5459348010926 89.7303331912218 
311.95 -46.4070056386275 89.7259852091025 -9.93318934549904e-05 -0.274014790898879 -9.93318934540261e-05 -0.274014790898786 -46.4070056386304 89.7259852091022 
316.9 -46.2702638315093 89.7216372301363 -0.000102509249421541 -0.278362769864596 -0.000102509249422506 -0.278362769864368 -46.2702638315164 89.7216372301354 
321.85 -46.1356415733819 89.7172892543761 -0.000105736624199447 -0.282710745623424 -0.000105736624198483 -0.282710745623463 -46.1356415733807 89.7172892543768 
326.8 -46.003074162869 89.7129412818747 -0.000109014017671184 -0.287058718127005 -0.000109014017672631 -0.287058718126726 -46.0030741628774 89.7129412818727 
331.75 -45.8724998167669 89.7085933126759 -0.000112341429728672 -0.291406687323742 -0.000112341429727707 -0.291406687323977 -45.8724998167599 89.7085933126767 
336.7 -45.7438594971633 89.7042453468347 -0.000115718860252537 -0.295754653164905 -0.000115718860253984 -0.295754653164612 -45.7438594971719 89.7042453468348 
341.65 -45.6170967511965 89.6998973844 -0.00011914630913044 -0.300102615598933 -0.00011914630913044 -0.300102615598823 -45.6170967511997 89.6998973844008 
346.6 -45.4921575622822 89.6955494254227 -0.000122623776241642 -0.304450574576729 -0.000122623776241642 -0.304450574576784 -45.4921575622806 89.6955494254234 
351.55 -45.3689902119006 89.6912014699529 -0.000126151261466168 -0.308798530047991 -0.00012615126146665 -0.308798530048241 -45.3689902118936 89.691201469952 
356.5 -45.2475451510712 89.6868535180377 -0.000129728764681912 -0.313146481962845 -0.000129728764681912 -0.313146481962922 -45.247545151069 89.6868535180384 
361.45 -45.1277748806879 89.6825055697293 -0.000133356285763675 -0.317494430271031 -0.000133356285764639 -0.317494430270944 -45.1277748806903 89.6825055697286 
366.4 -45.0096338399727 89.6781576250784 -0.000137033824590396 -0.321842374922308 -0.000137033824589432 -0.321842374922403 -45.0096338399702 89.6781576250779 
371.35 -44.8930783024132 89.6738096841335 -0.000140761381029241 -0.326190315866861 -0.000140761381030206 -0.326190315866967 -44.8930783024104 89.6738096841329 
376.3 -44.7780662786234 89.6694617469453 -0.000144538954958264 -0.330538253054492 -0.0001445389549573 -0.330538253054693 -44.7780662786181 89.6694617469456 
381.25 -44.6645574255096 89.6651138135654 -0.000148366546241336 -0.334886186435022 -0.000148366546240854 -0.334886186435208 -44.6645574255048 89.6651138135651 
386.2 -44.5525129613481 89.66076588404 -0.000152244154747911 -0.339234115959107 -0.000152244154747429 -0.339234115958936 -44.5525129613525 89.6607658840412 
391.15 -44.4418955861983 89.6564179584241 -0.000156171780344832 -0.343582041575797 -0.000156171780345314 -0.343582041575461 -44.4418955862068 89.6564179584243 
396.1 -44.3326694074025 89.6520700367636 -0.000160149422895365 -0.347929963235385 -0.000160149422894883 -0.347929963235165 -44.332669407408 89.6520700367644 
401.05 -44.2247998696211 89.6477221191131 -0.00016417708226354 -0.352277880886966 -0.00016417708226354 -0.352277880887183 -44.2247998696157 89.6477221191133 
406 -44.1182536892795 89.6433742055189 -0.00016825475830788 -0.356625794482098 -0.000168254758309809 -0.356625794482259 -44.1182536892756 89.6433742055176 
410.95 -44.0129987928487 89.6390262960295 -0.000172382450890083 -0.36097370396992 -0.000172382450890083 -0.360973703969892 -44.0129987928494 89.6390262960287 
415.9 -43.9090042589287 89.6346783907017 -0.000176560159867787 -0.365321609300002 -0.000176560159866823 -0.365321609299966 -43.9090042589296 89.6346783906996 
420.85 -43.8062402637099 89.6303304895778 -0.000180787885092162 -0.369669510422342 -0.000180787885092162 -0.369669510422344 -43.8062402637098 89.6303304895772 
425.8 -43.7046780296423 89.6259825927134 -0.000185065626420443 -0.374017407287371 -0.00018506562642189 -0.374017407287271 -43.7046780296446 89.625982592712 
430.75 -43.6042897770436 89.6216347001539 -0.000189393383705325 -0.378365299844729 -0.000189393383705807 -0.378365299844563 -43.6042897770474 89.621634700155 
435.7 -43.5050486785087 89.6172868119566 -0.000193771156796407 -0.382713188044485 -0.000193771156798336 -0.382713188044419 -43.5050486785102 89.6172868119555 
440.65 -43.406928815849 89.6129389281648 -0.00019819894554357 -0.387061071835922 -0.000198198945544053 -0.3870610718362 -43.4069288158428 89.612938928164 
445.6 -43.3099051395004 89.6085910488307 -0.000202676749792154 -0.391408951169974 -0.000202676749792154 -0.391408951170058 -43.3099051394985 89.6085910488297 
450.55 -43.2139534301194 89.604243174005 -0.000207204569388259 -0.39575682599597 -0.000207204569387777 -0.395756825996119 -43.2139534301161 89.6042431740042 
455.5 -43.1190502622869 89.5998953037363 -0.000211782404173929 -0.400104696264081 -0.000211782404173929 -0.400104696264079 -43.119050262287 89.5998953037358 
460.45 -43.0251729701995 89.5955474380751 -0.000216410253993897 -0.404452561924095 -0.000216410253992932 -0.404452561924016 -43.0251729702012 89.595547438076 
465.4 -42.9322996151692 89.5911995770736 -0.00022108811868498 -0.408800422925827 -0.00022108811868498 -0.408800422925982 -42.9322996151659 89.5911995770748 
470.35 -42.8404089548429 89.5868517207787 -0.000225815998088135 -0.413148279219523 -0.00022581599808717 -0.413148279219597 -42.8404089548414 89.5868517207808 
475.3 -42.749480414058 89.5825038692456 -0.000230593892037844 -0.417496130755457 -0.000230593892039291 -0.417496130754862 -42.7494804140704 89.5825038692434 
480.25 -42.6594940571916 89.5781560225188 -0.000235421800373214 -0.421843977481895 -0.000235421800373214 -0.421843977482161 -42.6594940571861 89.5781560225179 
485.2 -42.5704305618937 89.5738081806494 -0.000240299722922057 -0.426191819350791 -0.000240299722923021 -0.426191819350628 -42.570430561897 89.5738081806492 
490.15 -42.4822711942446 89.5694603436888 -0.000245227659521144 -0.43053965631087 -0.00024522765952018 -0.430539656311 -42.4822711942419 89.5694603436887 
495.1 -42.3949977850459 89.5651125116868 -0.00025020560999451 -0.434887488312516 -0.000250205609993063 -0.434887488312766 -42.3949977850409 89.5651125116878 
500.05 -42.3085927073803 89.5607646846939 -0.000255233574173699 -0.43923531530573 -0.000255233574173217 -0.439235315305796 -42.308592707379 89.5607646846942 
505 -42.2230388552438 89.5564168627607 -0.00026031155188427 -0.443583137240542 -0.000260311551885235 -0.443583137240338 -42.2230388552478 89.5564168627591 
509.95 -42.1383196232008 89.552069045934 -0.000265439542952544 -0.447930954065994 -0.000265439542952544 -0.447930954066001 -42.1383196232007 89.5520690459338 
514.9 -42.0544188870656 89.5477212342669 -0.000270617547197887 -0.452278765732782 -0.000270617547198369 -0.452278765732981 -42.0544188870618 89.5477212342674 
519.85 -41.9713209854639 89.5433734278098 -0.000275845564443321 -0.456626572191023 -0.00027584556444525 -0.456626572191036 -41.9713209854636 89.5433734278089 
524.8 -41.8890107023041 89.5390256266098 -0.000281123594509739 -0.460974373390456 -0.000281123594510221 -0.460974373390301 -41.889010702307 89.5390256266095 
529.75 -41.807473250044 89.5346778307198 -0.000286451637213008 -0.465322169280642 -0.000286451637212043 -0.465322169280681 -41.8074732500433 89.5346778307198 
534.7 -41.7266942537474 89.5303300401883 -0.000291829692366864 -0.469669959811991 -0.000291829692367346 -0.469669959811849 -41.72669425375 89.530330040188 
539.65 -41.6466597358894 89.5259822550652 -0.000297257759788698 -0.474017744934329 -0.000297257759788698 -0.474017744934059 -41.6466597358944 89.5259822550648 
544.6 -41.5673561018237 89.5216344754032 -0.000302735839292325 -0.478365524597106 -0.000302735839292325 -0.478365524597128 -41.5673561018233 89.5216344754034 
549.55 -41.4887701259312 89.5172867012501 -0.000308263930684605 -0.482713298751025 -0.000308263930685569 -0.482713298750842 -41.4887701259345 89.5172867012488 
554.5 -41.4108889383949 89.5129389326543 -0.000313842033775088 -0.487061067345392 -0.000313842033774606 -0.487061067345569 -41.4108889383917 89.5129389326542 
559.45 -41.3337000125217 89.5085911696695 -0.000319470148373607 -0.491408830330768 -0.000319470148374572 -0.49140883033063 -41.3337000125241 89.508591169669 
564.4 -41.2571911526913 89.5042434123435 -0.000325148274284003 -0.495756587656524 -0.000325148274284003 -0.495756587656535 -41.2571911526911 89.5042434123436 
569.35 -41.1813504827563 89.4998956607264 -0.000330876411311844 -0.500104339273079 -0.000330876411310397 -0.500104339272951 -41.1813504827586 89.4998956607269 
574.3 -41.1061664349977 89.4955479148701 -0.000336654559255745 -0.504452085129662 -0.000336654559255745 -0.504452085129713 -41.1061664349968 89.4955479148705 
579.25 -41.0316277395397 89.4912001748227 -0.000342482717918458 -0.508799825177165 -0.000342482717917493 -0.508799825177037 -41.0316277395419 89.4912001748229 
584.2 -40.957723414198 89.4868524406354 -0.000348360887098192 -0.513147559364883 -0.000348360887099156 -0.513147559364698 -40.9577234142012 89.4868524406352 
589.15 -40.8844427547842 89.4825047123578 -0.000354289066592471 -0.517495287642754 -0.000354289066592954 -0.517495287642845 -40.8844427547827 89.482504712357 
594.1 -40.8117753257842 89.478156990039 -0.000360267256196207 -0.521843009960953 -0.000360267256196207 -0.521843009960986 -40.8117753257836 89.4781569900393 
599.05 -40.7397109514681 89.47380927373 -0.000366295455701695 -0.526190726269687 -0.000366295455701695 -0.526190726269614 -40.7397109514692 89.4738092737303 
604 -40.6682397073053 89.4694615634815 -0.000372373664902476 -0.530538436518383 -0.000372373664902476 -0.53053843651817 -40.6682397073088 89.4694615634815 
608.95 -40.5973519117931 89.465113859344 -0.000378501883588994 -0.534886140656708 -0.000378501883589476 -0.534886140656878 -40.5973519117904 89.4651138593432 
613.9 -40.5270381185699 89.460766161364 -0.000384680111546186 -0.539233838635581 -0.000384680111545704 -0.539233838635724 -40.5270381185676 89.4607661613644 
618.85 -40.4572891088612 89.4564184695964 -0.00039090834856409 -0.543581530404531 -0.000390908348564572 -0.543581530404459 -40.4572891088624 89.4564184695953 
623.8 -40.388095884234 89.4520707840867 -0.000397186594424826 -0.547929215913124 -0.00039718659442579 -0.547929215913 -40.388095884236 89.4520707840864 
628.75 -40.3194496596329 89.447723104888 -0.000403514848914649 -0.55227689511157 -0.000403514848913203 -0.552276895111639 -40.3194496596318 89.4477231048883 
633.7 -40.251341856671 89.4433754320487 -0.000409893111811899 -0.556624567949909 -0.00040989311180997 -0.556624567950025 -40.2513418566692 89.4433754320504 
638.65 -40.1837640972137 89.4390277656217 -0.000416321382896639 -0.560972234378016 -0.000416321382896639 -0.560972234378176 -40.1837640972112 89.4390277656221 
643.6 -40.1167081971842 89.4346801056548 -0.000422799661949692 -0.565319894345801 -0.000422799661949692 -0.565319894345874 -40.1167081971831 89.434680105655 
648.55 -40.0501661606289 89.4303324521969 -0.000429327948742519 -0.569667547803413 -0.000429327948743484 -0.569667547803475 -40.0501661606279 89.4303324521965 
653.5 -39.9841301739738 89.4259848052989 -0.000435906243055055 -0.574015194700425 -0.000435906243054091 -0.574015194700486 -39.9841301739729 89.4259848052997 
658.45 -39.9185926005445 89.4216371650123 -0.000442534544655459 -0.578362834987265 -0.000442534544654495 -0.578362834987192 -39.9185926005456 89.4216371650128 
663.4 -39.8535459752476 89.4172895313863 -0.000449212853316992 -0.582710468613581 -0.00044921285331651 -0.582710468613436 -39.8535459752498 89.4172895313866 
668.35 -39.788982999475 89.4129419044705 -0.000455941168808369 -0.587058095529058 -0.000455941168807405 -0.587058095529024 -39.7889829994755 89.4129419044708 
673.3 -39.7248965361958 89.4085942843168 -0.00046271949089714 -0.591405715684029 -0.000462719490898105 -0.591405715684132 -39.7248965361943 89.4085942843156 
678.25 -39.66127960521 89.4042466709716 -0.000469547819349203 -0.595753329028459 -0.000469547819349203 -0.595753329028492 -39.6612796052095 89.4042466709714 
683.2 -39.5981253785985 89.3998990644883 -0.000476426153929287 -0.600100935512148 -0.000476426153929287 -0.600100935512209 -39.5981253785976 89.399899064488 
688.15 -39.5354271763169 89.3955514649148 -0.000483354494399027 -0.604448535085135 -0.000483354494399027 -0.604448535085143 -39.5354271763168 89.3955514649148 
693.1 -39.4731784619619 89.3912038723024 -0.00049033284051985 -0.608796127697297 -0.000490332840518886 -0.608796127697321 -39.4731784619616 89.3912038723032 
698.05 -39.4113728386791 89.3868562867012 -0.000497361192047679 -0.613143713298547 -0.000497361192048644 -0.613143713298735 -39.4113728386764 89.3868562867015 
703 -39.350004045216 89.3825087081608 -0.0005044395487445 -0.617491291839043 -0.000504439548745464 -0.617491291839132 -39.3500040452148 89.3825087081612 
707.95 -39.2890659521246 89.3781611367314 -0.000511567910362932 -0.621838863268371 -0.000511567910363414 -0.621838863268629 -39.289065952121 89.3781611367315 
712.9 -39.2285525580794 89.3738135724625 -0.000518746276658284 -0.626186427536971 -0.000518746276657319 -0.6261864275371 -39.2285525580777 89.3738135724632 
717.85 -39.1684579863368 89.3694660154053 -0.000525974647379393 -0.630533984594509 -0.000525974647380357 -0.630533984594585 -39.1684579863357 89.3694660154056 
722.8 -39.1087764813074 89.3651184656085 -0.000533253022279713 -0.634881534391097 -0.000533253022278748 -0.634881534391082 -39.1087764813076 89.3651184656091 
727.75 -39.0495024052464 89.3607709231239 -0.000540581401108637 -0.639229076876278 -0.000540581401107672 -0.639229076876351 -39.0495024052454 89.3607709231239 
732.7 -38.9906302350657 89.3564233879994 -0.000547959783607636 -0.643576612000653 -0.000547959783607636 -0.643576612000513 -38.9906302350676 89.3564233879992 
737.65 -38.9321545592381 89.352075860286 -0.000555388169527143 -0.647924139713441 -0.000555388169526179 -0.64792413971345 -38.932154559238 89.3520758602872 
742.6 -38.8740700748181 89.347728340035 -0.000562866558607738 -0.652271659965326 -0.000562866558609185 -0.652271659965206 -38.8740700748197 89.3477283400347 
747.55 -38.8163715845536 89.3433808272942 -0.000570394950593658 -0.656619172705809 -0.00057039495059414 -0.656619172705783 -38.8163715845539 89.3433808272934 
752.5 -38.75905399409 89.3390333221152 -0.000577973345223144 -0.660966677884846 -0.000577973345224109 -0.660966677884738 -38.7590539940914 89.339033322115 
757.45 -38.7021123092908 89.334685824547 -0.000585601742236168 -0.665314175452636 -0.000585601742233274 -0.6653141754526 -38.7021123092913 89.3346858245476 
762.4 -38.6455416335993 89.3303383346413 -0.000593280141364775 -0.669661665358808 -0.000593280141364775 -0.669661665358844 -38.6455416335988 89.3303383346416 
767.35 -38.5893371655366 89.3259908524467 -0.000601008542348526 -0.674009147553647 -0.000601008542347562 -0.674009147553714 -38.5893371655357 89.3259908524468 
772.3 -38.5334941962402 89.3216433780136 -0.000608786944916649 -0.678356621987073 -0.000608786944916649 -0.678356621987007 -38.533494196241 89.3216433780128 
777.25 -38.4780081071076 89.3172959113907 -0.000616615348802023 -0.682704088608845 -0.000616615348801541 -0.682704088608883 -38.4780081071071 89.3172959113912 
782.2 -38.4228743674938 89.3129484526304 -0.000624493753734433 -0.687051547369175 -0.000624493753735879 -0.687051547369053 -38.4228743674954 89.3129484526308 
787.15 -38.368088532505 89.3086010017817 -0.000632422159444419 -0.691398998217704 -0.000632422159443937 -0.691398998217799 -38.3680885325038 89.308601001782 
792.1 -38.3136462408323 89.3042535588953 -0.00064040056565364 -0.695746441104733 -0.000640400565654604 -0.695746441104743 -38.3136462408322 89.3042535588948 
797.05 -38.2595432126848 89.2999061240192 -0.000648428972089334 -0.700093875979993 -0.000648428972088369 -0.70009387598008 -38.2595432126837 89.2999061240201 
802 -38.2057752477576 89.2955586972068 -0.000656507378471783 -0.704441302793666 -0.000656507378474195 -0.704441302793552 -38.205775247759 89.2955586972062 
806.95 -38.1523382232884 89.2912112785045 -0.000664635784527335 -0.708788721495374 -0.000664635784526371 -0.708788721495468 -38.1523382232872 89.2912112785048 
811.9 -38.0992280921453 89.2868638679647 -0.000672814189968146 -0.713136132035389 -0.000672814189967664 -0.713136132035482 -38.0992280921442 89.2868638679645 
816.85 -38.0464408810008 89.2825164656369 -0.000681042594514848 -0.717483534363622 -0.000681042594514848 -0.717483534363612 -38.0464408810009 89.2825164656365 
821.8 -37.9939726885452 89.2781690715699 -0.000689320997883044 -0.721830928430035 -0.000689320997883044 -0.721830928430033 -37.9939726885452 89.2781690715697 
826.75 -37.9418196837471 89.2738216858159 -0.000697649399787651 -0.726178314184425 -0.000697649399789097 -0.726178314184265 -37.941819683749 89.2738216858154 
831.7 -37.8899781041951 89.2694743084231 -0.000706027799940968 -0.730525691576844 -0.000706027799940485 -0.730525691576802 -37.8899781041956 89.269474308423 
836.65 -37.8384442544464 89.2651269394425 -0.000714456198052196 -0.73487306055739 -0.000714456198051232 -0.734873060557277 -37.8384442544477 89.2651269394425 
841.6 -37.7872145044642 89.2607795789242 -0.000722934593829849 -0.739220421076003 -0.000722934593830814 -0.739220421075888 -37.7872145044655 89.2607795789237 
846.55 -37.7362852880711 89.2564322269168 -0.000731462986986574 -0.743567773082264 -0.000731462986982234 -0.743567773082379 -37.7362852880697 89.2564322269176 
851.5 -37.685653101467 89.2520848834727 -0.00074004137721697 -0.747915116526819 -0.000740041377217453 -0.747915116526655 -37.6856531014689 89.2520848834726 
856.45 -37.6353145017851 89.247737548641 -0.000748669764234238 -0.752262451358935 -0.000748669764235202 -0.752262451358977 -37.6353145017846 89.2477375486413 
861.4 -37.5852661056781 89.2433902224707 -0.000757348147737387 -0.756609777529356 -0.000757348147738834 -0.756609777529154 -37.5852661056804 89.2433902224706 
866.35 -37.5355045879629 89.2390429050123 -0.000766076527428115 -0.760957094987039 -0.000766076527426186 -0.760957094987357 -37.5355045879592 89.2390429050132 
871.3 -37.4860266802838 89.2346955963172 -0.000774854903000679 -0.76530440368323 -0.00077485490300309 -0.765304403683094 -37.4860266802854 89.2346955963164 
876.25 -37.4368291698434 89.2303482964328 -0.00078368327415733 -0.769651703566779 -0.000783683274154919 -0.769651703566849 -37.4368291698426 89.2303482964336 
881.2 -37.3879088981292 89.2260010054121 -0.00079256164058902 -0.773998994588216 -0.000792561640588056 -0.773998994588239 -37.387908898129 89.2260010054119 
886.15 -37.3392627597143 89.2216537233032 -0.000801490001988906 -0.778346276697307 -0.000801490001989388 -0.778346276697447 -37.3392627597128 89.2216537233025 
891.1 -37.2908877010625 89.2173064501559 -0.000810468358050904 -0.782693549844271 -0.000810468358051868 -0.782693549844199 -37.2908877010633 89.2173064501556 
896.05 -37.2427807193899 89.2129591860216 -0.000819496708464865 -0.78704081397877 -0.000819496708465829 -0.787040813978782 -37.2427807193898 89.2129591860213 
901 -37.1949388615354 89.2086119309494 -0.00082857505291754 -0.791388069051124 -0.000828575052919952 -0.791388069051029 -37.1949388615364 89.2086119309487 
905.95 -37.1473592228775 89.2042646849886 -0.000837703391098369 -0.795735315010688 -0.000837703391097404 -0.795735315010723 -37.1473592228771 89.2042646849891 
910.9 -37.1000389462832 89.1999174481913 -0.000846881722689349 -0.800082551808291 -0.000846881722688385 -0.800082551808207 -37.1000389462841 89.1999174481918 
915.85 -37.0529752210672 89.195570220606 -0.00085611004737179 -0.80442977939339 -0.000856110047370826 -0.804429779393368 -37.0529752210675 89.1955702206066 
920.8 -37.0061652819929 89.191223002284 -0.00086538836482776 -0.808776997716101 -0.000865388364829206 -0.80877699771584 -37.0061652819957 89.1912230022835 
925.75 -36.9596064083084 89.1868757932743 -0.000874716674742977 -0.813124206725781 -0.000874716674743459 -0.81312420672602 -36.9596064083059 89.1868757932743 
930.7 -36.9132959227826 89.1825285936269 -0.000884094976788002 -0.817471406373668 -0.000884094976788967 -0.817471406373645 -36.9132959227829 89.1825285936265 
935.65 -36.8672311907923 89.1781814033911 -0.000893523270641873 -0.821818596608814 -0.000893523270641873 -0.821818596608806 -36.8672311907924 89.1781814033912 